V -t * -v 1.0a5 -a 0
A -t * -n 1 -p 0 -o 0x7fffffff -c 30 -a 1
A -t * -h 1 -m 1073741823 -s 0
n -t * -a 4 -s 4 -S UP -v circle -c black -i black
n -t * -a 0 -s 0 -S UP -v circle -c black -i black
n -t * -a 5 -s 5 -S UP -v circle -c black -i black
n -t * -a 1 -s 1 -S UP -v circle -c black -i black
n -t * -a 6 -s 6 -S UP -v circle -c black -i black
n -t * -a 2 -s 2 -S UP -v circle -c black -i black
n -t * -a 7 -s 7 -S UP -v circle -c black -i black
n -t * -a 3 -s 3 -S UP -v circle -c black -i black
l -t * -s 6 -d 7 -S UP -r 2500000 -D 0.01 -c black
X -t * -n 8 -r 1Mb -D 10ms -o left
L -t * -s 8 -d 0 -o up
L -t * -s 8 -d 1 -o down
L -t * -s 8 -d 2 -o up
L -t * -s 8 -d 6 -o down
X -t * -n 9 -r 1Mb -D 10ms -o left
L -t * -s 9 -d 7 -o up
L -t * -s 9 -d 3 -o down
L -t * -s 9 -d 4 -o up
L -t * -s 9 -d 5 -o down
h -t 0.5 -s 2 -d 8 -p cbr -e 1000 -c 0 -i 0 -a 0 -x {2.0 5.0 0 ------- null}
+ -t 0.51 -s 2 -d 8 -p cbr -e 1000 -c 0 -i 0 -a 0 -x {2.0 5.0 0 ------- null}
- -t 0.51 -s 2 -d 8 -p cbr -e 1000 -c 0 -i 0 -a 0 -x {2.0 5.0 0 ------- null}
h -t 0.51 -s 2 -d 8 -p cbr -e 1000 -c 0 -i 0 -a 0 -x {2.0 5.0 -1 ------- null}
r -t 0.528116 -s 8 -d 6 -p cbr -e 1000 -c 0 -i 0 -a 0 -x {2.0 5.0 0 ------- null}
+ -t 0.528116 -s 6 -d 7 -p cbr -e 1000 -c 0 -i 0 -a 0 -x {2.0 5.0 0 ------- null}
- -t 0.528116 -s 6 -d 7 -p cbr -e 1000 -c 0 -i 0 -a 0 -x {2.0 5.0 0 ------- null}
h -t 0.528116 -s 6 -d 7 -p cbr -e 1000 -c 0 -i 0 -a 0 -x {2.0 5.0 -1 ------- null}
r -t 0.541316 -s 6 -d 7 -p cbr -e 1000 -c 0 -i 0 -a 0 -x {2.0 5.0 0 ------- null}
h -t 0.541316 -s 7 -d 9 -p cbr -e 1000 -c 0 -i 0 -a 0 -x {2.0 5.0 0 ------- null}
+ -t 0.551316 -s 7 -d 9 -p cbr -e 1000 -c 0 -i 0 -a 0 -x {2.0 5.0 0 ------- null}
- -t 0.551316 -s 7 -d 9 -p cbr -e 1000 -c 0 -i 0 -a 0 -x {2.0 5.0 0 ------- null}
h -t 0.551316 -s 7 -d 9 -p cbr -e 1000 -c 0 -i 0 -a 0 -x {2.0 5.0 -1 ------- null}
r -t 0.569432 -s 9 -d 5 -p cbr -e 1000 -c 0 -i 0 -a 0 -x {2.0 5.0 0 ------- null}
h -t 0.58 -s 2 -d 8 -p cbr -e 1000 -c 0 -i 1 -a 0 -x {2.0 5.0 1 ------- null}
+ -t 0.59 -s 2 -d 8 -p cbr -e 1000 -c 0 -i 1 -a 0 -x {2.0 5.0 1 ------- null}
- -t 0.59 -s 2 -d 8 -p cbr -e 1000 -c 0 -i 1 -a 0 -x {2.0 5.0 1 ------- null}
h -t 0.59 -s 2 -d 8 -p cbr -e 1000 -c 0 -i 1 -a 0 -x {2.0 5.0 -1 ------- null}
r -t 0.608116 -s 8 -d 6 -p cbr -e 1000 -c 0 -i 1 -a 0 -x {2.0 5.0 1 ------- null}
+ -t 0.608116 -s 6 -d 7 -p cbr -e 1000 -c 0 -i 1 -a 0 -x {2.0 5.0 1 ------- null}
- -t 0.608116 -s 6 -d 7 -p cbr -e 1000 -c 0 -i 1 -a 0 -x {2.0 5.0 1 ------- null}
h -t 0.608116 -s 6 -d 7 -p cbr -e 1000 -c 0 -i 1 -a 0 -x {2.0 5.0 -1 ------- null}
r -t 0.621316 -s 6 -d 7 -p cbr -e 1000 -c 0 -i 1 -a 0 -x {2.0 5.0 1 ------- null}
h -t 0.621316 -s 7 -d 9 -p cbr -e 1000 -c 0 -i 1 -a 0 -x {2.0 5.0 1 ------- null}
+ -t 0.631316 -s 7 -d 9 -p cbr -e 1000 -c 0 -i 1 -a 0 -x {2.0 5.0 1 ------- null}
- -t 0.631316 -s 7 -d 9 -p cbr -e 1000 -c 0 -i 1 -a 0 -x {2.0 5.0 1 ------- null}
h -t 0.631316 -s 7 -d 9 -p cbr -e 1000 -c 0 -i 1 -a 0 -x {2.0 5.0 -1 ------- null}
r -t 0.649432 -s 9 -d 5 -p cbr -e 1000 -c 0 -i 1 -a 0 -x {2.0 5.0 1 ------- null}
h -t 0.66 -s 2 -d 8 -p cbr -e 1000 -c 0 -i 2 -a 0 -x {2.0 5.0 2 ------- null}
+ -t 0.67 -s 2 -d 8 -p cbr -e 1000 -c 0 -i 2 -a 0 -x {2.0 5.0 2 ------- null}
- -t 0.67 -s 2 -d 8 -p cbr -e 1000 -c 0 -i 2 -a 0 -x {2.0 5.0 2 ------- null}
h -t 0.67 -s 2 -d 8 -p cbr -e 1000 -c 0 -i 2 -a 0 -x {2.0 5.0 -1 ------- null}
r -t 0.688116 -s 8 -d 6 -p cbr -e 1000 -c 0 -i 2 -a 0 -x {2.0 5.0 2 ------- null}
+ -t 0.688116 -s 6 -d 7 -p cbr -e 1000 -c 0 -i 2 -a 0 -x {2.0 5.0 2 ------- null}
- -t 0.688116 -s 6 -d 7 -p cbr -e 1000 -c 0 -i 2 -a 0 -x {2.0 5.0 2 ------- null}
h -t 0.688116 -s 6 -d 7 -p cbr -e 1000 -c 0 -i 2 -a 0 -x {2.0 5.0 -1 ------- null}
r -t 0.701316 -s 6 -d 7 -p cbr -e 1000 -c 0 -i 2 -a 0 -x {2.0 5.0 2 ------- null}
h -t 0.701316 -s 7 -d 9 -p cbr -e 1000 -c 0 -i 2 -a 0 -x {2.0 5.0 2 ------- null}
+ -t 0.711316 -s 7 -d 9 -p cbr -e 1000 -c 0 -i 2 -a 0 -x {2.0 5.0 2 ------- null}
- -t 0.711316 -s 7 -d 9 -p cbr -e 1000 -c 0 -i 2 -a 0 -x {2.0 5.0 2 ------- null}
h -t 0.711316 -s 7 -d 9 -p cbr -e 1000 -c 0 -i 2 -a 0 -x {2.0 5.0 -1 ------- null}
r -t 0.729432 -s 9 -d 5 -p cbr -e 1000 -c 0 -i 2 -a 0 -x {2.0 5.0 2 ------- null}
h -t 0.74 -s 2 -d 8 -p cbr -e 1000 -c 0 -i 3 -a 0 -x {2.0 5.0 3 ------- null}
+ -t 0.75 -s 2 -d 8 -p cbr -e 1000 -c 0 -i 3 -a 0 -x {2.0 5.0 3 ------- null}
- -t 0.75 -s 2 -d 8 -p cbr -e 1000 -c 0 -i 3 -a 0 -x {2.0 5.0 3 ------- null}
h -t 0.75 -s 2 -d 8 -p cbr -e 1000 -c 0 -i 3 -a 0 -x {2.0 5.0 -1 ------- null}
r -t 0.768116 -s 8 -d 6 -p cbr -e 1000 -c 0 -i 3 -a 0 -x {2.0 5.0 3 ------- null}
+ -t 0.768116 -s 6 -d 7 -p cbr -e 1000 -c 0 -i 3 -a 0 -x {2.0 5.0 3 ------- null}
- -t 0.768116 -s 6 -d 7 -p cbr -e 1000 -c 0 -i 3 -a 0 -x {2.0 5.0 3 ------- null}
h -t 0.768116 -s 6 -d 7 -p cbr -e 1000 -c 0 -i 3 -a 0 -x {2.0 5.0 -1 ------- null}
r -t 0.781316 -s 6 -d 7 -p cbr -e 1000 -c 0 -i 3 -a 0 -x {2.0 5.0 3 ------- null}
h -t 0.781316 -s 7 -d 9 -p cbr -e 1000 -c 0 -i 3 -a 0 -x {2.0 5.0 3 ------- null}
+ -t 0.791316 -s 7 -d 9 -p cbr -e 1000 -c 0 -i 3 -a 0 -x {2.0 5.0 3 ------- null}
- -t 0.791316 -s 7 -d 9 -p cbr -e 1000 -c 0 -i 3 -a 0 -x {2.0 5.0 3 ------- null}
h -t 0.791316 -s 7 -d 9 -p cbr -e 1000 -c 0 -i 3 -a 0 -x {2.0 5.0 -1 ------- null}
r -t 0.809432 -s 9 -d 5 -p cbr -e 1000 -c 0 -i 3 -a 0 -x {2.0 5.0 3 ------- null}
h -t 0.82 -s 2 -d 8 -p cbr -e 1000 -c 0 -i 4 -a 0 -x {2.0 5.0 4 ------- null}
+ -t 0.83 -s 2 -d 8 -p cbr -e 1000 -c 0 -i 4 -a 0 -x {2.0 5.0 4 ------- null}
- -t 0.83 -s 2 -d 8 -p cbr -e 1000 -c 0 -i 4 -a 0 -x {2.0 5.0 4 ------- null}
h -t 0.83 -s 2 -d 8 -p cbr -e 1000 -c 0 -i 4 -a 0 -x {2.0 5.0 -1 ------- null}
r -t 0.848116 -s 8 -d 6 -p cbr -e 1000 -c 0 -i 4 -a 0 -x {2.0 5.0 4 ------- null}
+ -t 0.848116 -s 6 -d 7 -p cbr -e 1000 -c 0 -i 4 -a 0 -x {2.0 5.0 4 ------- null}
- -t 0.848116 -s 6 -d 7 -p cbr -e 1000 -c 0 -i 4 -a 0 -x {2.0 5.0 4 ------- null}
h -t 0.848116 -s 6 -d 7 -p cbr -e 1000 -c 0 -i 4 -a 0 -x {2.0 5.0 -1 ------- null}
r -t 0.861316 -s 6 -d 7 -p cbr -e 1000 -c 0 -i 4 -a 0 -x {2.0 5.0 4 ------- null}
h -t 0.861316 -s 7 -d 9 -p cbr -e 1000 -c 0 -i 4 -a 0 -x {2.0 5.0 4 ------- null}
+ -t 0.871316 -s 7 -d 9 -p cbr -e 1000 -c 0 -i 4 -a 0 -x {2.0 5.0 4 ------- null}
- -t 0.871316 -s 7 -d 9 -p cbr -e 1000 -c 0 -i 4 -a 0 -x {2.0 5.0 4 ------- null}
h -t 0.871316 -s 7 -d 9 -p cbr -e 1000 -c 0 -i 4 -a 0 -x {2.0 5.0 -1 ------- null}
r -t 0.889432 -s 9 -d 5 -p cbr -e 1000 -c 0 -i 4 -a 0 -x {2.0 5.0 4 ------- null}
h -t 0.9 -s 2 -d 8 -p cbr -e 1000 -c 0 -i 5 -a 0 -x {2.0 5.0 5 ------- null}
+ -t 0.91 -s 2 -d 8 -p cbr -e 1000 -c 0 -i 5 -a 0 -x {2.0 5.0 5 ------- null}
- -t 0.91 -s 2 -d 8 -p cbr -e 1000 -c 0 -i 5 -a 0 -x {2.0 5.0 5 ------- null}
h -t 0.91 -s 2 -d 8 -p cbr -e 1000 -c 0 -i 5 -a 0 -x {2.0 5.0 -1 ------- null}
r -t 0.928116 -s 8 -d 6 -p cbr -e 1000 -c 0 -i 5 -a 0 -x {2.0 5.0 5 ------- null}
+ -t 0.928116 -s 6 -d 7 -p cbr -e 1000 -c 0 -i 5 -a 0 -x {2.0 5.0 5 ------- null}
- -t 0.928116 -s 6 -d 7 -p cbr -e 1000 -c 0 -i 5 -a 0 -x {2.0 5.0 5 ------- null}
h -t 0.928116 -s 6 -d 7 -p cbr -e 1000 -c 0 -i 5 -a 0 -x {2.0 5.0 -1 ------- null}
r -t 0.941316 -s 6 -d 7 -p cbr -e 1000 -c 0 -i 5 -a 0 -x {2.0 5.0 5 ------- null}
h -t 0.941316 -s 7 -d 9 -p cbr -e 1000 -c 0 -i 5 -a 0 -x {2.0 5.0 5 ------- null}
+ -t 0.951316 -s 7 -d 9 -p cbr -e 1000 -c 0 -i 5 -a 0 -x {2.0 5.0 5 ------- null}
- -t 0.951316 -s 7 -d 9 -p cbr -e 1000 -c 0 -i 5 -a 0 -x {2.0 5.0 5 ------- null}
h -t 0.951316 -s 7 -d 9 -p cbr -e 1000 -c 0 -i 5 -a 0 -x {2.0 5.0 -1 ------- null}
r -t 0.969432 -s 9 -d 5 -p cbr -e 1000 -c 0 -i 5 -a 0 -x {2.0 5.0 5 ------- null}
h -t 0.98 -s 2 -d 8 -p cbr -e 1000 -c 0 -i 6 -a 0 -x {2.0 5.0 6 ------- null}
+ -t 0.99 -s 2 -d 8 -p cbr -e 1000 -c 0 -i 6 -a 0 -x {2.0 5.0 6 ------- null}
- -t 0.99 -s 2 -d 8 -p cbr -e 1000 -c 0 -i 6 -a 0 -x {2.0 5.0 6 ------- null}
h -t 0.99 -s 2 -d 8 -p cbr -e 1000 -c 0 -i 6 -a 0 -x {2.0 5.0 -1 ------- null}
r -t 1.008116 -s 8 -d 6 -p cbr -e 1000 -c 0 -i 6 -a 0 -x {2.0 5.0 6 ------- null}
+ -t 1.008116 -s 6 -d 7 -p cbr -e 1000 -c 0 -i 6 -a 0 -x {2.0 5.0 6 ------- null}
- -t 1.008116 -s 6 -d 7 -p cbr -e 1000 -c 0 -i 6 -a 0 -x {2.0 5.0 6 ------- null}
h -t 1.008116 -s 6 -d 7 -p cbr -e 1000 -c 0 -i 6 -a 0 -x {2.0 5.0 -1 ------- null}
r -t 1.021316 -s 6 -d 7 -p cbr -e 1000 -c 0 -i 6 -a 0 -x {2.0 5.0 6 ------- null}
h -t 1.021316 -s 7 -d 9 -p cbr -e 1000 -c 0 -i 6 -a 0 -x {2.0 5.0 6 ------- null}
+ -t 1.031316 -s 7 -d 9 -p cbr -e 1000 -c 0 -i 6 -a 0 -x {2.0 5.0 6 ------- null}
- -t 1.031316 -s 7 -d 9 -p cbr -e 1000 -c 0 -i 6 -a 0 -x {2.0 5.0 6 ------- null}
h -t 1.031316 -s 7 -d 9 -p cbr -e 1000 -c 0 -i 6 -a 0 -x {2.0 5.0 -1 ------- null}
r -t 1.049432 -s 9 -d 5 -p cbr -e 1000 -c 0 -i 6 -a 0 -x {2.0 5.0 6 ------- null}
h -t 1.06 -s 2 -d 8 -p cbr -e 1000 -c 0 -i 7 -a 0 -x {2.0 5.0 7 ------- null}
+ -t 1.07 -s 2 -d 8 -p cbr -e 1000 -c 0 -i 7 -a 0 -x {2.0 5.0 7 ------- null}
- -t 1.07 -s 2 -d 8 -p cbr -e 1000 -c 0 -i 7 -a 0 -x {2.0 5.0 7 ------- null}
h -t 1.07 -s 2 -d 8 -p cbr -e 1000 -c 0 -i 7 -a 0 -x {2.0 5.0 -1 ------- null}
r -t 1.088116 -s 8 -d 6 -p cbr -e 1000 -c 0 -i 7 -a 0 -x {2.0 5.0 7 ------- null}
+ -t 1.088116 -s 6 -d 7 -p cbr -e 1000 -c 0 -i 7 -a 0 -x {2.0 5.0 7 ------- null}
- -t 1.088116 -s 6 -d 7 -p cbr -e 1000 -c 0 -i 7 -a 0 -x {2.0 5.0 7 ------- null}
h -t 1.088116 -s 6 -d 7 -p cbr -e 1000 -c 0 -i 7 -a 0 -x {2.0 5.0 -1 ------- null}
r -t 1.101316 -s 6 -d 7 -p cbr -e 1000 -c 0 -i 7 -a 0 -x {2.0 5.0 7 ------- null}
h -t 1.101316 -s 7 -d 9 -p cbr -e 1000 -c 0 -i 7 -a 0 -x {2.0 5.0 7 ------- null}
+ -t 1.111316 -s 7 -d 9 -p cbr -e 1000 -c 0 -i 7 -a 0 -x {2.0 5.0 7 ------- null}
- -t 1.111316 -s 7 -d 9 -p cbr -e 1000 -c 0 -i 7 -a 0 -x {2.0 5.0 7 ------- null}
h -t 1.111316 -s 7 -d 9 -p cbr -e 1000 -c 0 -i 7 -a 0 -x {2.0 5.0 -1 ------- null}
r -t 1.129432 -s 9 -d 5 -p cbr -e 1000 -c 0 -i 7 -a 0 -x {2.0 5.0 7 ------- null}
h -t 1.14 -s 2 -d 8 -p cbr -e 1000 -c 0 -i 8 -a 0 -x {2.0 5.0 8 ------- null}
+ -t 1.15 -s 2 -d 8 -p cbr -e 1000 -c 0 -i 8 -a 0 -x {2.0 5.0 8 ------- null}
- -t 1.15 -s 2 -d 8 -p cbr -e 1000 -c 0 -i 8 -a 0 -x {2.0 5.0 8 ------- null}
h -t 1.15 -s 2 -d 8 -p cbr -e 1000 -c 0 -i 8 -a 0 -x {2.0 5.0 -1 ------- null}
r -t 1.168116 -s 8 -d 6 -p cbr -e 1000 -c 0 -i 8 -a 0 -x {2.0 5.0 8 ------- null}
+ -t 1.168116 -s 6 -d 7 -p cbr -e 1000 -c 0 -i 8 -a 0 -x {2.0 5.0 8 ------- null}
- -t 1.168116 -s 6 -d 7 -p cbr -e 1000 -c 0 -i 8 -a 0 -x {2.0 5.0 8 ------- null}
h -t 1.168116 -s 6 -d 7 -p cbr -e 1000 -c 0 -i 8 -a 0 -x {2.0 5.0 -1 ------- null}
r -t 1.181316 -s 6 -d 7 -p cbr -e 1000 -c 0 -i 8 -a 0 -x {2.0 5.0 8 ------- null}
h -t 1.181316 -s 7 -d 9 -p cbr -e 1000 -c 0 -i 8 -a 0 -x {2.0 5.0 8 ------- null}
+ -t 1.191316 -s 7 -d 9 -p cbr -e 1000 -c 0 -i 8 -a 0 -x {2.0 5.0 8 ------- null}
- -t 1.191316 -s 7 -d 9 -p cbr -e 1000 -c 0 -i 8 -a 0 -x {2.0 5.0 8 ------- null}
h -t 1.191316 -s 7 -d 9 -p cbr -e 1000 -c 0 -i 8 -a 0 -x {2.0 5.0 -1 ------- null}
r -t 1.209432 -s 9 -d 5 -p cbr -e 1000 -c 0 -i 8 -a 0 -x {2.0 5.0 8 ------- null}
h -t 1.22 -s 2 -d 8 -p cbr -e 1000 -c 0 -i 9 -a 0 -x {2.0 5.0 9 ------- null}
+ -t 1.23 -s 2 -d 8 -p cbr -e 1000 -c 0 -i 9 -a 0 -x {2.0 5.0 9 ------- null}
- -t 1.23 -s 2 -d 8 -p cbr -e 1000 -c 0 -i 9 -a 0 -x {2.0 5.0 9 ------- null}
h -t 1.23 -s 2 -d 8 -p cbr -e 1000 -c 0 -i 9 -a 0 -x {2.0 5.0 -1 ------- null}
r -t 1.248116 -s 8 -d 6 -p cbr -e 1000 -c 0 -i 9 -a 0 -x {2.0 5.0 9 ------- null}
+ -t 1.248116 -s 6 -d 7 -p cbr -e 1000 -c 0 -i 9 -a 0 -x {2.0 5.0 9 ------- null}
- -t 1.248116 -s 6 -d 7 -p cbr -e 1000 -c 0 -i 9 -a 0 -x {2.0 5.0 9 ------- null}
h -t 1.248116 -s 6 -d 7 -p cbr -e 1000 -c 0 -i 9 -a 0 -x {2.0 5.0 -1 ------- null}
r -t 1.261316 -s 6 -d 7 -p cbr -e 1000 -c 0 -i 9 -a 0 -x {2.0 5.0 9 ------- null}
h -t 1.261316 -s 7 -d 9 -p cbr -e 1000 -c 0 -i 9 -a 0 -x {2.0 5.0 9 ------- null}
+ -t 1.271316 -s 7 -d 9 -p cbr -e 1000 -c 0 -i 9 -a 0 -x {2.0 5.0 9 ------- null}
- -t 1.271316 -s 7 -d 9 -p cbr -e 1000 -c 0 -i 9 -a 0 -x {2.0 5.0 9 ------- null}
h -t 1.271316 -s 7 -d 9 -p cbr -e 1000 -c 0 -i 9 -a 0 -x {2.0 5.0 -1 ------- null}
r -t 1.289432 -s 9 -d 5 -p cbr -e 1000 -c 0 -i 9 -a 0 -x {2.0 5.0 9 ------- null}
h -t 1.3 -s 2 -d 8 -p cbr -e 1000 -c 0 -i 10 -a 0 -x {2.0 5.0 10 ------- null}
+ -t 1.31 -s 2 -d 8 -p cbr -e 1000 -c 0 -i 10 -a 0 -x {2.0 5.0 10 ------- null}
- -t 1.31 -s 2 -d 8 -p cbr -e 1000 -c 0 -i 10 -a 0 -x {2.0 5.0 10 ------- null}
h -t 1.31 -s 2 -d 8 -p cbr -e 1000 -c 0 -i 10 -a 0 -x {2.0 5.0 -1 ------- null}
r -t 1.328116 -s 8 -d 6 -p cbr -e 1000 -c 0 -i 10 -a 0 -x {2.0 5.0 10 ------- null}
d -t 1.328116 -s 6 -d 7 -p cbr -e 1000 -c 0 -i 10 -a 0 -x {2.0 5.0 10 ------- null}
h -t 1.38 -s 2 -d 8 -p cbr -e 1000 -c 0 -i 11 -a 0 -x {2.0 5.0 11 ------- null}
+ -t 1.39 -s 2 -d 8 -p cbr -e 1000 -c 0 -i 11 -a 0 -x {2.0 5.0 11 ------- null}
- -t 1.39 -s 2 -d 8 -p cbr -e 1000 -c 0 -i 11 -a 0 -x {2.0 5.0 11 ------- null}
h -t 1.39 -s 2 -d 8 -p cbr -e 1000 -c 0 -i 11 -a 0 -x {2.0 5.0 -1 ------- null}
r -t 1.408116 -s 8 -d 6 -p cbr -e 1000 -c 0 -i 11 -a 0 -x {2.0 5.0 11 ------- null}
+ -t 1.408116 -s 6 -d 7 -p cbr -e 1000 -c 0 -i 11 -a 0 -x {2.0 5.0 11 ------- null}
- -t 1.408116 -s 6 -d 7 -p cbr -e 1000 -c 0 -i 11 -a 0 -x {2.0 5.0 11 ------- null}
h -t 1.408116 -s 6 -d 7 -p cbr -e 1000 -c 0 -i 11 -a 0 -x {2.0 5.0 -1 ------- null}
r -t 1.421316 -s 6 -d 7 -p cbr -e 1000 -c 0 -i 11 -a 0 -x {2.0 5.0 11 ------- null}
h -t 1.421316 -s 7 -d 9 -p cbr -e 1000 -c 0 -i 11 -a 0 -x {2.0 5.0 11 ------- null}
+ -t 1.431316 -s 7 -d 9 -p cbr -e 1000 -c 0 -i 11 -a 0 -x {2.0 5.0 11 ------- null}
- -t 1.431316 -s 7 -d 9 -p cbr -e 1000 -c 0 -i 11 -a 0 -x {2.0 5.0 11 ------- null}
h -t 1.431316 -s 7 -d 9 -p cbr -e 1000 -c 0 -i 11 -a 0 -x {2.0 5.0 -1 ------- null}
r -t 1.449432 -s 9 -d 5 -p cbr -e 1000 -c 0 -i 11 -a 0 -x {2.0 5.0 11 ------- null}
h -t 1.46 -s 2 -d 8 -p cbr -e 1000 -c 0 -i 12 -a 0 -x {2.0 5.0 12 ------- null}
+ -t 1.47 -s 2 -d 8 -p cbr -e 1000 -c 0 -i 12 -a 0 -x {2.0 5.0 12 ------- null}
- -t 1.47 -s 2 -d 8 -p cbr -e 1000 -c 0 -i 12 -a 0 -x {2.0 5.0 12 ------- null}
h -t 1.47 -s 2 -d 8 -p cbr -e 1000 -c 0 -i 12 -a 0 -x {2.0 5.0 -1 ------- null}
r -t 1.488116 -s 8 -d 6 -p cbr -e 1000 -c 0 -i 12 -a 0 -x {2.0 5.0 12 ------- null}
+ -t 1.488116 -s 6 -d 7 -p cbr -e 1000 -c 0 -i 12 -a 0 -x {2.0 5.0 12 ------- null}
- -t 1.488116 -s 6 -d 7 -p cbr -e 1000 -c 0 -i 12 -a 0 -x {2.0 5.0 12 ------- null}
h -t 1.488116 -s 6 -d 7 -p cbr -e 1000 -c 0 -i 12 -a 0 -x {2.0 5.0 -1 ------- null}
r -t 1.501316 -s 6 -d 7 -p cbr -e 1000 -c 0 -i 12 -a 0 -x {2.0 5.0 12 ------- null}
h -t 1.501316 -s 7 -d 9 -p cbr -e 1000 -c 0 -i 12 -a 0 -x {2.0 5.0 12 ------- null}
+ -t 1.511316 -s 7 -d 9 -p cbr -e 1000 -c 0 -i 12 -a 0 -x {2.0 5.0 12 ------- null}
- -t 1.511316 -s 7 -d 9 -p cbr -e 1000 -c 0 -i 12 -a 0 -x {2.0 5.0 12 ------- null}
h -t 1.511316 -s 7 -d 9 -p cbr -e 1000 -c 0 -i 12 -a 0 -x {2.0 5.0 -1 ------- null}
r -t 1.529432 -s 9 -d 5 -p cbr -e 1000 -c 0 -i 12 -a 0 -x {2.0 5.0 12 ------- null}
h -t 1.54 -s 2 -d 8 -p cbr -e 1000 -c 0 -i 13 -a 0 -x {2.0 5.0 13 ------- null}
+ -t 1.55 -s 2 -d 8 -p cbr -e 1000 -c 0 -i 13 -a 0 -x {2.0 5.0 13 ------- null}
- -t 1.55 -s 2 -d 8 -p cbr -e 1000 -c 0 -i 13 -a 0 -x {2.0 5.0 13 ------- null}
h -t 1.55 -s 2 -d 8 -p cbr -e 1000 -c 0 -i 13 -a 0 -x {2.0 5.0 -1 ------- null}
r -t 1.568116 -s 8 -d 6 -p cbr -e 1000 -c 0 -i 13 -a 0 -x {2.0 5.0 13 ------- null}
+ -t 1.568116 -s 6 -d 7 -p cbr -e 1000 -c 0 -i 13 -a 0 -x {2.0 5.0 13 ------- null}
- -t 1.568116 -s 6 -d 7 -p cbr -e 1000 -c 0 -i 13 -a 0 -x {2.0 5.0 13 ------- null}
h -t 1.568116 -s 6 -d 7 -p cbr -e 1000 -c 0 -i 13 -a 0 -x {2.0 5.0 -1 ------- null}
r -t 1.581316 -s 6 -d 7 -p cbr -e 1000 -c 0 -i 13 -a 0 -x {2.0 5.0 13 ------- null}
h -t 1.581316 -s 7 -d 9 -p cbr -e 1000 -c 0 -i 13 -a 0 -x {2.0 5.0 13 ------- null}
+ -t 1.591316 -s 7 -d 9 -p cbr -e 1000 -c 0 -i 13 -a 0 -x {2.0 5.0 13 ------- null}
- -t 1.591316 -s 7 -d 9 -p cbr -e 1000 -c 0 -i 13 -a 0 -x {2.0 5.0 13 ------- null}
h -t 1.591316 -s 7 -d 9 -p cbr -e 1000 -c 0 -i 13 -a 0 -x {2.0 5.0 -1 ------- null}
r -t 1.609432 -s 9 -d 5 -p cbr -e 1000 -c 0 -i 13 -a 0 -x {2.0 5.0 13 ------- null}
h -t 1.62 -s 2 -d 8 -p cbr -e 1000 -c 0 -i 14 -a 0 -x {2.0 5.0 14 ------- null}
+ -t 1.63 -s 2 -d 8 -p cbr -e 1000 -c 0 -i 14 -a 0 -x {2.0 5.0 14 ------- null}
- -t 1.63 -s 2 -d 8 -p cbr -e 1000 -c 0 -i 14 -a 0 -x {2.0 5.0 14 ------- null}
h -t 1.63 -s 2 -d 8 -p cbr -e 1000 -c 0 -i 14 -a 0 -x {2.0 5.0 -1 ------- null}
r -t 1.648116 -s 8 -d 6 -p cbr -e 1000 -c 0 -i 14 -a 0 -x {2.0 5.0 14 ------- null}
+ -t 1.648116 -s 6 -d 7 -p cbr -e 1000 -c 0 -i 14 -a 0 -x {2.0 5.0 14 ------- null}
- -t 1.648116 -s 6 -d 7 -p cbr -e 1000 -c 0 -i 14 -a 0 -x {2.0 5.0 14 ------- null}
h -t 1.648116 -s 6 -d 7 -p cbr -e 1000 -c 0 -i 14 -a 0 -x {2.0 5.0 -1 ------- null}
r -t 1.661316 -s 6 -d 7 -p cbr -e 1000 -c 0 -i 14 -a 0 -x {2.0 5.0 14 ------- null}
h -t 1.661316 -s 7 -d 9 -p cbr -e 1000 -c 0 -i 14 -a 0 -x {2.0 5.0 14 ------- null}
+ -t 1.671316 -s 7 -d 9 -p cbr -e 1000 -c 0 -i 14 -a 0 -x {2.0 5.0 14 ------- null}
- -t 1.671316 -s 7 -d 9 -p cbr -e 1000 -c 0 -i 14 -a 0 -x {2.0 5.0 14 ------- null}
h -t 1.671316 -s 7 -d 9 -p cbr -e 1000 -c 0 -i 14 -a 0 -x {2.0 5.0 -1 ------- null}
r -t 1.689432 -s 9 -d 5 -p cbr -e 1000 -c 0 -i 14 -a 0 -x {2.0 5.0 14 ------- null}
h -t 1.7 -s 2 -d 8 -p cbr -e 1000 -c 0 -i 15 -a 0 -x {2.0 5.0 15 ------- null}
+ -t 1.71 -s 2 -d 8 -p cbr -e 1000 -c 0 -i 15 -a 0 -x {2.0 5.0 15 ------- null}
- -t 1.71 -s 2 -d 8 -p cbr -e 1000 -c 0 -i 15 -a 0 -x {2.0 5.0 15 ------- null}
h -t 1.71 -s 2 -d 8 -p cbr -e 1000 -c 0 -i 15 -a 0 -x {2.0 5.0 -1 ------- null}
r -t 1.728116 -s 8 -d 6 -p cbr -e 1000 -c 0 -i 15 -a 0 -x {2.0 5.0 15 ------- null}
+ -t 1.728116 -s 6 -d 7 -p cbr -e 1000 -c 0 -i 15 -a 0 -x {2.0 5.0 15 ------- null}
- -t 1.728116 -s 6 -d 7 -p cbr -e 1000 -c 0 -i 15 -a 0 -x {2.0 5.0 15 ------- null}
h -t 1.728116 -s 6 -d 7 -p cbr -e 1000 -c 0 -i 15 -a 0 -x {2.0 5.0 -1 ------- null}
r -t 1.741316 -s 6 -d 7 -p cbr -e 1000 -c 0 -i 15 -a 0 -x {2.0 5.0 15 ------- null}
h -t 1.741316 -s 7 -d 9 -p cbr -e 1000 -c 0 -i 15 -a 0 -x {2.0 5.0 15 ------- null}
+ -t 1.751316 -s 7 -d 9 -p cbr -e 1000 -c 0 -i 15 -a 0 -x {2.0 5.0 15 ------- null}
- -t 1.751316 -s 7 -d 9 -p cbr -e 1000 -c 0 -i 15 -a 0 -x {2.0 5.0 15 ------- null}
h -t 1.751316 -s 7 -d 9 -p cbr -e 1000 -c 0 -i 15 -a 0 -x {2.0 5.0 -1 ------- null}
r -t 1.769432 -s 9 -d 5 -p cbr -e 1000 -c 0 -i 15 -a 0 -x {2.0 5.0 15 ------- null}
h -t 1.78 -s 2 -d 8 -p cbr -e 1000 -c 0 -i 16 -a 0 -x {2.0 5.0 16 ------- null}
+ -t 1.79 -s 2 -d 8 -p cbr -e 1000 -c 0 -i 16 -a 0 -x {2.0 5.0 16 ------- null}
- -t 1.79 -s 2 -d 8 -p cbr -e 1000 -c 0 -i 16 -a 0 -x {2.0 5.0 16 ------- null}
h -t 1.79 -s 2 -d 8 -p cbr -e 1000 -c 0 -i 16 -a 0 -x {2.0 5.0 -1 ------- null}
r -t 1.808116 -s 8 -d 6 -p cbr -e 1000 -c 0 -i 16 -a 0 -x {2.0 5.0 16 ------- null}
+ -t 1.808116 -s 6 -d 7 -p cbr -e 1000 -c 0 -i 16 -a 0 -x {2.0 5.0 16 ------- null}
- -t 1.808116 -s 6 -d 7 -p cbr -e 1000 -c 0 -i 16 -a 0 -x {2.0 5.0 16 ------- null}
h -t 1.808116 -s 6 -d 7 -p cbr -e 1000 -c 0 -i 16 -a 0 -x {2.0 5.0 -1 ------- null}
r -t 1.821316 -s 6 -d 7 -p cbr -e 1000 -c 0 -i 16 -a 0 -x {2.0 5.0 16 ------- null}
h -t 1.821316 -s 7 -d 9 -p cbr -e 1000 -c 0 -i 16 -a 0 -x {2.0 5.0 16 ------- null}
+ -t 1.831316 -s 7 -d 9 -p cbr -e 1000 -c 0 -i 16 -a 0 -x {2.0 5.0 16 ------- null}
- -t 1.831316 -s 7 -d 9 -p cbr -e 1000 -c 0 -i 16 -a 0 -x {2.0 5.0 16 ------- null}
h -t 1.831316 -s 7 -d 9 -p cbr -e 1000 -c 0 -i 16 -a 0 -x {2.0 5.0 -1 ------- null}
r -t 1.849432 -s 9 -d 5 -p cbr -e 1000 -c 0 -i 16 -a 0 -x {2.0 5.0 16 ------- null}
h -t 1.86 -s 2 -d 8 -p cbr -e 1000 -c 0 -i 17 -a 0 -x {2.0 5.0 17 ------- null}
+ -t 1.87 -s 2 -d 8 -p cbr -e 1000 -c 0 -i 17 -a 0 -x {2.0 5.0 17 ------- null}
- -t 1.87 -s 2 -d 8 -p cbr -e 1000 -c 0 -i 17 -a 0 -x {2.0 5.0 17 ------- null}
h -t 1.87 -s 2 -d 8 -p cbr -e 1000 -c 0 -i 17 -a 0 -x {2.0 5.0 -1 ------- null}
r -t 1.888116 -s 8 -d 6 -p cbr -e 1000 -c 0 -i 17 -a 0 -x {2.0 5.0 17 ------- null}
+ -t 1.888116 -s 6 -d 7 -p cbr -e 1000 -c 0 -i 17 -a 0 -x {2.0 5.0 17 ------- null}
- -t 1.888116 -s 6 -d 7 -p cbr -e 1000 -c 0 -i 17 -a 0 -x {2.0 5.0 17 ------- null}
h -t 1.888116 -s 6 -d 7 -p cbr -e 1000 -c 0 -i 17 -a 0 -x {2.0 5.0 -1 ------- null}
r -t 1.901316 -s 6 -d 7 -p cbr -e 1000 -c 0 -i 17 -a 0 -x {2.0 5.0 17 ------- null}
h -t 1.901316 -s 7 -d 9 -p cbr -e 1000 -c 0 -i 17 -a 0 -x {2.0 5.0 17 ------- null}
+ -t 1.911316 -s 7 -d 9 -p cbr -e 1000 -c 0 -i 17 -a 0 -x {2.0 5.0 17 ------- null}
- -t 1.911316 -s 7 -d 9 -p cbr -e 1000 -c 0 -i 17 -a 0 -x {2.0 5.0 17 ------- null}
h -t 1.911316 -s 7 -d 9 -p cbr -e 1000 -c 0 -i 17 -a 0 -x {2.0 5.0 -1 ------- null}
r -t 1.929432 -s 9 -d 5 -p cbr -e 1000 -c 0 -i 17 -a 0 -x {2.0 5.0 17 ------- null}
h -t 1.94 -s 2 -d 8 -p cbr -e 1000 -c 0 -i 18 -a 0 -x {2.0 5.0 18 ------- null}
+ -t 1.95 -s 2 -d 8 -p cbr -e 1000 -c 0 -i 18 -a 0 -x {2.0 5.0 18 ------- null}
- -t 1.95 -s 2 -d 8 -p cbr -e 1000 -c 0 -i 18 -a 0 -x {2.0 5.0 18 ------- null}
h -t 1.95 -s 2 -d 8 -p cbr -e 1000 -c 0 -i 18 -a 0 -x {2.0 5.0 -1 ------- null}
r -t 1.968116 -s 8 -d 6 -p cbr -e 1000 -c 0 -i 18 -a 0 -x {2.0 5.0 18 ------- null}
+ -t 1.968116 -s 6 -d 7 -p cbr -e 1000 -c 0 -i 18 -a 0 -x {2.0 5.0 18 ------- null}
- -t 1.968116 -s 6 -d 7 -p cbr -e 1000 -c 0 -i 18 -a 0 -x {2.0 5.0 18 ------- null}
h -t 1.968116 -s 6 -d 7 -p cbr -e 1000 -c 0 -i 18 -a 0 -x {2.0 5.0 -1 ------- null}
r -t 1.981316 -s 6 -d 7 -p cbr -e 1000 -c 0 -i 18 -a 0 -x {2.0 5.0 18 ------- null}
h -t 1.981316 -s 7 -d 9 -p cbr -e 1000 -c 0 -i 18 -a 0 -x {2.0 5.0 18 ------- null}
+ -t 1.991316 -s 7 -d 9 -p cbr -e 1000 -c 0 -i 18 -a 0 -x {2.0 5.0 18 ------- null}
- -t 1.991316 -s 7 -d 9 -p cbr -e 1000 -c 0 -i 18 -a 0 -x {2.0 5.0 18 ------- null}
h -t 1.991316 -s 7 -d 9 -p cbr -e 1000 -c 0 -i 18 -a 0 -x {2.0 5.0 -1 ------- null}
r -t 2.009432 -s 9 -d 5 -p cbr -e 1000 -c 0 -i 18 -a 0 -x {2.0 5.0 18 ------- null}
h -t 2.02 -s 2 -d 8 -p cbr -e 1000 -c 0 -i 19 -a 0 -x {2.0 5.0 19 ------- null}
+ -t 2.03 -s 2 -d 8 -p cbr -e 1000 -c 0 -i 19 -a 0 -x {2.0 5.0 19 ------- null}
- -t 2.03 -s 2 -d 8 -p cbr -e 1000 -c 0 -i 19 -a 0 -x {2.0 5.0 19 ------- null}
h -t 2.03 -s 2 -d 8 -p cbr -e 1000 -c 0 -i 19 -a 0 -x {2.0 5.0 -1 ------- null}
r -t 2.048116 -s 8 -d 6 -p cbr -e 1000 -c 0 -i 19 -a 0 -x {2.0 5.0 19 ------- null}
+ -t 2.048116 -s 6 -d 7 -p cbr -e 1000 -c 0 -i 19 -a 0 -x {2.0 5.0 19 ------- null}
- -t 2.048116 -s 6 -d 7 -p cbr -e 1000 -c 0 -i 19 -a 0 -x {2.0 5.0 19 ------- null}
h -t 2.048116 -s 6 -d 7 -p cbr -e 1000 -c 0 -i 19 -a 0 -x {2.0 5.0 -1 ------- null}
r -t 2.061316 -s 6 -d 7 -p cbr -e 1000 -c 0 -i 19 -a 0 -x {2.0 5.0 19 ------- null}
h -t 2.061316 -s 7 -d 9 -p cbr -e 1000 -c 0 -i 19 -a 0 -x {2.0 5.0 19 ------- null}
+ -t 2.071316 -s 7 -d 9 -p cbr -e 1000 -c 0 -i 19 -a 0 -x {2.0 5.0 19 ------- null}
- -t 2.071316 -s 7 -d 9 -p cbr -e 1000 -c 0 -i 19 -a 0 -x {2.0 5.0 19 ------- null}
h -t 2.071316 -s 7 -d 9 -p cbr -e 1000 -c 0 -i 19 -a 0 -x {2.0 5.0 -1 ------- null}
r -t 2.089432 -s 9 -d 5 -p cbr -e 1000 -c 0 -i 19 -a 0 -x {2.0 5.0 19 ------- null}
h -t 2.1 -s 2 -d 8 -p cbr -e 1000 -c 0 -i 20 -a 0 -x {2.0 5.0 20 ------- null}
+ -t 2.11 -s 2 -d 8 -p cbr -e 1000 -c 0 -i 20 -a 0 -x {2.0 5.0 20 ------- null}
- -t 2.11 -s 2 -d 8 -p cbr -e 1000 -c 0 -i 20 -a 0 -x {2.0 5.0 20 ------- null}
h -t 2.11 -s 2 -d 8 -p cbr -e 1000 -c 0 -i 20 -a 0 -x {2.0 5.0 -1 ------- null}
r -t 2.128116 -s 8 -d 6 -p cbr -e 1000 -c 0 -i 20 -a 0 -x {2.0 5.0 20 ------- null}
+ -t 2.128116 -s 6 -d 7 -p cbr -e 1000 -c 0 -i 20 -a 0 -x {2.0 5.0 20 ------- null}
- -t 2.128116 -s 6 -d 7 -p cbr -e 1000 -c 0 -i 20 -a 0 -x {2.0 5.0 20 ------- null}
h -t 2.128116 -s 6 -d 7 -p cbr -e 1000 -c 0 -i 20 -a 0 -x {2.0 5.0 -1 ------- null}
r -t 2.141316 -s 6 -d 7 -p cbr -e 1000 -c 0 -i 20 -a 0 -x {2.0 5.0 20 ------- null}
h -t 2.141316 -s 7 -d 9 -p cbr -e 1000 -c 0 -i 20 -a 0 -x {2.0 5.0 20 ------- null}
+ -t 2.151316 -s 7 -d 9 -p cbr -e 1000 -c 0 -i 20 -a 0 -x {2.0 5.0 20 ------- null}
- -t 2.151316 -s 7 -d 9 -p cbr -e 1000 -c 0 -i 20 -a 0 -x {2.0 5.0 20 ------- null}
h -t 2.151316 -s 7 -d 9 -p cbr -e 1000 -c 0 -i 20 -a 0 -x {2.0 5.0 -1 ------- null}
r -t 2.169432 -s 9 -d 5 -p cbr -e 1000 -c 0 -i 20 -a 0 -x {2.0 5.0 20 ------- null}
h -t 2.18 -s 2 -d 8 -p cbr -e 1000 -c 0 -i 21 -a 0 -x {2.0 5.0 21 ------- null}
+ -t 2.19 -s 2 -d 8 -p cbr -e 1000 -c 0 -i 21 -a 0 -x {2.0 5.0 21 ------- null}
- -t 2.19 -s 2 -d 8 -p cbr -e 1000 -c 0 -i 21 -a 0 -x {2.0 5.0 21 ------- null}
h -t 2.19 -s 2 -d 8 -p cbr -e 1000 -c 0 -i 21 -a 0 -x {2.0 5.0 -1 ------- null}
r -t 2.208116 -s 8 -d 6 -p cbr -e 1000 -c 0 -i 21 -a 0 -x {2.0 5.0 21 ------- null}
+ -t 2.208116 -s 6 -d 7 -p cbr -e 1000 -c 0 -i 21 -a 0 -x {2.0 5.0 21 ------- null}
- -t 2.208116 -s 6 -d 7 -p cbr -e 1000 -c 0 -i 21 -a 0 -x {2.0 5.0 21 ------- null}
h -t 2.208116 -s 6 -d 7 -p cbr -e 1000 -c 0 -i 21 -a 0 -x {2.0 5.0 -1 ------- null}
r -t 2.221316 -s 6 -d 7 -p cbr -e 1000 -c 0 -i 21 -a 0 -x {2.0 5.0 21 ------- null}
h -t 2.221316 -s 7 -d 9 -p cbr -e 1000 -c 0 -i 21 -a 0 -x {2.0 5.0 21 ------- null}
+ -t 2.231316 -s 7 -d 9 -p cbr -e 1000 -c 0 -i 21 -a 0 -x {2.0 5.0 21 ------- null}
- -t 2.231316 -s 7 -d 9 -p cbr -e 1000 -c 0 -i 21 -a 0 -x {2.0 5.0 21 ------- null}
h -t 2.231316 -s 7 -d 9 -p cbr -e 1000 -c 0 -i 21 -a 0 -x {2.0 5.0 -1 ------- null}
r -t 2.249432 -s 9 -d 5 -p cbr -e 1000 -c 0 -i 21 -a 0 -x {2.0 5.0 21 ------- null}
h -t 2.26 -s 2 -d 8 -p cbr -e 1000 -c 0 -i 22 -a 0 -x {2.0 5.0 22 ------- null}
+ -t 2.27 -s 2 -d 8 -p cbr -e 1000 -c 0 -i 22 -a 0 -x {2.0 5.0 22 ------- null}
- -t 2.27 -s 2 -d 8 -p cbr -e 1000 -c 0 -i 22 -a 0 -x {2.0 5.0 22 ------- null}
h -t 2.27 -s 2 -d 8 -p cbr -e 1000 -c 0 -i 22 -a 0 -x {2.0 5.0 -1 ------- null}
r -t 2.288116 -s 8 -d 6 -p cbr -e 1000 -c 0 -i 22 -a 0 -x {2.0 5.0 22 ------- null}
+ -t 2.288116 -s 6 -d 7 -p cbr -e 1000 -c 0 -i 22 -a 0 -x {2.0 5.0 22 ------- null}
- -t 2.288116 -s 6 -d 7 -p cbr -e 1000 -c 0 -i 22 -a 0 -x {2.0 5.0 22 ------- null}
h -t 2.288116 -s 6 -d 7 -p cbr -e 1000 -c 0 -i 22 -a 0 -x {2.0 5.0 -1 ------- null}
r -t 2.301316 -s 6 -d 7 -p cbr -e 1000 -c 0 -i 22 -a 0 -x {2.0 5.0 22 ------- null}
h -t 2.301316 -s 7 -d 9 -p cbr -e 1000 -c 0 -i 22 -a 0 -x {2.0 5.0 22 ------- null}
+ -t 2.311316 -s 7 -d 9 -p cbr -e 1000 -c 0 -i 22 -a 0 -x {2.0 5.0 22 ------- null}
- -t 2.311316 -s 7 -d 9 -p cbr -e 1000 -c 0 -i 22 -a 0 -x {2.0 5.0 22 ------- null}
h -t 2.311316 -s 7 -d 9 -p cbr -e 1000 -c 0 -i 22 -a 0 -x {2.0 5.0 -1 ------- null}
r -t 2.329432 -s 9 -d 5 -p cbr -e 1000 -c 0 -i 22 -a 0 -x {2.0 5.0 22 ------- null}
h -t 2.34 -s 2 -d 8 -p cbr -e 1000 -c 0 -i 23 -a 0 -x {2.0 5.0 23 ------- null}
+ -t 2.35 -s 2 -d 8 -p cbr -e 1000 -c 0 -i 23 -a 0 -x {2.0 5.0 23 ------- null}
- -t 2.35 -s 2 -d 8 -p cbr -e 1000 -c 0 -i 23 -a 0 -x {2.0 5.0 23 ------- null}
h -t 2.35 -s 2 -d 8 -p cbr -e 1000 -c 0 -i 23 -a 0 -x {2.0 5.0 -1 ------- null}
r -t 2.368116 -s 8 -d 6 -p cbr -e 1000 -c 0 -i 23 -a 0 -x {2.0 5.0 23 ------- null}
+ -t 2.368116 -s 6 -d 7 -p cbr -e 1000 -c 0 -i 23 -a 0 -x {2.0 5.0 23 ------- null}
- -t 2.368116 -s 6 -d 7 -p cbr -e 1000 -c 0 -i 23 -a 0 -x {2.0 5.0 23 ------- null}
h -t 2.368116 -s 6 -d 7 -p cbr -e 1000 -c 0 -i 23 -a 0 -x {2.0 5.0 -1 ------- null}
r -t 2.381316 -s 6 -d 7 -p cbr -e 1000 -c 0 -i 23 -a 0 -x {2.0 5.0 23 ------- null}
h -t 2.381316 -s 7 -d 9 -p cbr -e 1000 -c 0 -i 23 -a 0 -x {2.0 5.0 23 ------- null}
+ -t 2.391316 -s 7 -d 9 -p cbr -e 1000 -c 0 -i 23 -a 0 -x {2.0 5.0 23 ------- null}
- -t 2.391316 -s 7 -d 9 -p cbr -e 1000 -c 0 -i 23 -a 0 -x {2.0 5.0 23 ------- null}
h -t 2.391316 -s 7 -d 9 -p cbr -e 1000 -c 0 -i 23 -a 0 -x {2.0 5.0 -1 ------- null}
r -t 2.409432 -s 9 -d 5 -p cbr -e 1000 -c 0 -i 23 -a 0 -x {2.0 5.0 23 ------- null}
h -t 2.42 -s 2 -d 8 -p cbr -e 1000 -c 0 -i 24 -a 0 -x {2.0 5.0 24 ------- null}
+ -t 2.43 -s 2 -d 8 -p cbr -e 1000 -c 0 -i 24 -a 0 -x {2.0 5.0 24 ------- null}
- -t 2.43 -s 2 -d 8 -p cbr -e 1000 -c 0 -i 24 -a 0 -x {2.0 5.0 24 ------- null}
h -t 2.43 -s 2 -d 8 -p cbr -e 1000 -c 0 -i 24 -a 0 -x {2.0 5.0 -1 ------- null}
r -t 2.448116 -s 8 -d 6 -p cbr -e 1000 -c 0 -i 24 -a 0 -x {2.0 5.0 24 ------- null}
+ -t 2.448116 -s 6 -d 7 -p cbr -e 1000 -c 0 -i 24 -a 0 -x {2.0 5.0 24 ------- null}
- -t 2.448116 -s 6 -d 7 -p cbr -e 1000 -c 0 -i 24 -a 0 -x {2.0 5.0 24 ------- null}
h -t 2.448116 -s 6 -d 7 -p cbr -e 1000 -c 0 -i 24 -a 0 -x {2.0 5.0 -1 ------- null}
r -t 2.461316 -s 6 -d 7 -p cbr -e 1000 -c 0 -i 24 -a 0 -x {2.0 5.0 24 ------- null}
h -t 2.461316 -s 7 -d 9 -p cbr -e 1000 -c 0 -i 24 -a 0 -x {2.0 5.0 24 ------- null}
+ -t 2.471316 -s 7 -d 9 -p cbr -e 1000 -c 0 -i 24 -a 0 -x {2.0 5.0 24 ------- null}
- -t 2.471316 -s 7 -d 9 -p cbr -e 1000 -c 0 -i 24 -a 0 -x {2.0 5.0 24 ------- null}
h -t 2.471316 -s 7 -d 9 -p cbr -e 1000 -c 0 -i 24 -a 0 -x {2.0 5.0 -1 ------- null}
r -t 2.489432 -s 9 -d 5 -p cbr -e 1000 -c 0 -i 24 -a 0 -x {2.0 5.0 24 ------- null}
h -t 2.5 -s 2 -d 8 -p cbr -e 1000 -c 0 -i 25 -a 0 -x {2.0 5.0 25 ------- null}
+ -t 2.51 -s 2 -d 8 -p cbr -e 1000 -c 0 -i 25 -a 0 -x {2.0 5.0 25 ------- null}
- -t 2.51 -s 2 -d 8 -p cbr -e 1000 -c 0 -i 25 -a 0 -x {2.0 5.0 25 ------- null}
h -t 2.51 -s 2 -d 8 -p cbr -e 1000 -c 0 -i 25 -a 0 -x {2.0 5.0 -1 ------- null}
r -t 2.528116 -s 8 -d 6 -p cbr -e 1000 -c 0 -i 25 -a 0 -x {2.0 5.0 25 ------- null}
+ -t 2.528116 -s 6 -d 7 -p cbr -e 1000 -c 0 -i 25 -a 0 -x {2.0 5.0 25 ------- null}
- -t 2.528116 -s 6 -d 7 -p cbr -e 1000 -c 0 -i 25 -a 0 -x {2.0 5.0 25 ------- null}
h -t 2.528116 -s 6 -d 7 -p cbr -e 1000 -c 0 -i 25 -a 0 -x {2.0 5.0 -1 ------- null}
r -t 2.541316 -s 6 -d 7 -p cbr -e 1000 -c 0 -i 25 -a 0 -x {2.0 5.0 25 ------- null}
h -t 2.541316 -s 7 -d 9 -p cbr -e 1000 -c 0 -i 25 -a 0 -x {2.0 5.0 25 ------- null}
+ -t 2.551316 -s 7 -d 9 -p cbr -e 1000 -c 0 -i 25 -a 0 -x {2.0 5.0 25 ------- null}
- -t 2.551316 -s 7 -d 9 -p cbr -e 1000 -c 0 -i 25 -a 0 -x {2.0 5.0 25 ------- null}
h -t 2.551316 -s 7 -d 9 -p cbr -e 1000 -c 0 -i 25 -a 0 -x {2.0 5.0 -1 ------- null}