h 0.5 2 8 cbr 1000 ------- 0 2.0 5.0 0 0
+ 0.51 2 8 cbr 1000 ------- 0 2.0 5.0 0 0
- 0.51 2 8 cbr 1000 ------- 0 2.0 5.0 0 0
r 0.528116 8 6 cbr 1000 ------- 0 2.0 5.0 0 0
+ 0.528116 6 7 cbr 1000 ------- 0 2.0 5.0 0 0
- 0.528116 6 7 cbr 1000 ------- 0 2.0 5.0 0 0
r 0.541316 6 7 cbr 1000 ------- 0 2.0 5.0 0 0
h 0.541316 7 9 cbr 1000 ------- 0 2.0 5.0 0 0
+ 0.551316 7 9 cbr 1000 ------- 0 2.0 5.0 0 0
- 0.551316 7 9 cbr 1000 ------- 0 2.0 5.0 0 0
r 0.569432 9 5 cbr 1000 ------- 0 2.0 5.0 0 0
h 0.58 2 8 cbr 1000 ------- 0 2.0 5.0 1 1
+ 0.59 2 8 cbr 1000 ------- 0 2.0 5.0 1 1
- 0.59 2 8 cbr 1000 ------- 0 2.0 5.0 1 1
r 0.608116 8 6 cbr 1000 ------- 0 2.0 5.0 1 1
+ 0.608116 6 7 cbr 1000 ------- 0 2.0 5.0 1 1
- 0.608116 6 7 cbr 1000 ------- 0 2.0 5.0 1 1
r 0.621316 6 7 cbr 1000 ------- 0 2.0 5.0 1 1
h 0.621316 7 9 cbr 1000 ------- 0 2.0 5.0 1 1
+ 0.631316 7 9 cbr 1000 ------- 0 2.0 5.0 1 1
- 0.631316 7 9 cbr 1000 ------- 0 2.0 5.0 1 1
r 0.649432 9 5 cbr 1000 ------- 0 2.0 5.0 1 1
h 0.66 2 8 cbr 1000 ------- 0 2.0 5.0 2 2
+ 0.67 2 8 cbr 1000 ------- 0 2.0 5.0 2 2
- 0.67 2 8 cbr 1000 ------- 0 2.0 5.0 2 2
r 0.688116 8 6 cbr 1000 ------- 0 2.0 5.0 2 2
+ 0.688116 6 7 cbr 1000 ------- 0 2.0 5.0 2 2
- 0.688116 6 7 cbr 1000 ------- 0 2.0 5.0 2 2
r 0.701316 6 7 cbr 1000 ------- 0 2.0 5.0 2 2
h 0.701316 7 9 cbr 1000 ------- 0 2.0 5.0 2 2
+ 0.711316 7 9 cbr 1000 ------- 0 2.0 5.0 2 2
- 0.711316 7 9 cbr 1000 ------- 0 2.0 5.0 2 2
r 0.729432 9 5 cbr 1000 ------- 0 2.0 5.0 2 2
h 0.74 2 8 cbr 1000 ------- 0 2.0 5.0 3 3
+ 0.75 2 8 cbr 1000 ------- 0 2.0 5.0 3 3
- 0.75 2 8 cbr 1000 ------- 0 2.0 5.0 3 3
r 0.768116 8 6 cbr 1000 ------- 0 2.0 5.0 3 3
+ 0.768116 6 7 cbr 1000 ------- 0 2.0 5.0 3 3
- 0.768116 6 7 cbr 1000 ------- 0 2.0 5.0 3 3
r 0.781316 6 7 cbr 1000 ------- 0 2.0 5.0 3 3
h 0.781316 7 9 cbr 1000 ------- 0 2.0 5.0 3 3
+ 0.791316 7 9 cbr 1000 ------- 0 2.0 5.0 3 3
- 0.791316 7 9 cbr 1000 ------- 0 2.0 5.0 3 3
r 0.809432 9 5 cbr 1000 ------- 0 2.0 5.0 3 3
h 0.82 2 8 cbr 1000 ------- 0 2.0 5.0 4 4
+ 0.83 2 8 cbr 1000 ------- 0 2.0 5.0 4 4
- 0.83 2 8 cbr 1000 ------- 0 2.0 5.0 4 4
r 0.848116 8 6 cbr 1000 ------- 0 2.0 5.0 4 4
+ 0.848116 6 7 cbr 1000 ------- 0 2.0 5.0 4 4
- 0.848116 6 7 cbr 1000 ------- 0 2.0 5.0 4 4
r 0.861316 6 7 cbr 1000 ------- 0 2.0 5.0 4 4
h 0.861316 7 9 cbr 1000 ------- 0 2.0 5.0 4 4
+ 0.871316 7 9 cbr 1000 ------- 0 2.0 5.0 4 4
- 0.871316 7 9 cbr 1000 ------- 0 2.0 5.0 4 4
r 0.889432 9 5 cbr 1000 ------- 0 2.0 5.0 4 4
h 0.9 2 8 cbr 1000 ------- 0 2.0 5.0 5 5
+ 0.91 2 8 cbr 1000 ------- 0 2.0 5.0 5 5
- 0.91 2 8 cbr 1000 ------- 0 2.0 5.0 5 5
r 0.928116 8 6 cbr 1000 ------- 0 2.0 5.0 5 5
+ 0.928116 6 7 cbr 1000 ------- 0 2.0 5.0 5 5
- 0.928116 6 7 cbr 1000 ------- 0 2.0 5.0 5 5
r 0.941316 6 7 cbr 1000 ------- 0 2.0 5.0 5 5
h 0.941316 7 9 cbr 1000 ------- 0 2.0 5.0 5 5
+ 0.951316 7 9 cbr 1000 ------- 0 2.0 5.0 5 5
- 0.951316 7 9 cbr 1000 ------- 0 2.0 5.0 5 5
r 0.969432 9 5 cbr 1000 ------- 0 2.0 5.0 5 5
h 0.98 2 8 cbr 1000 ------- 0 2.0 5.0 6 6
+ 0.99 2 8 cbr 1000 ------- 0 2.0 5.0 6 6
- 0.99 2 8 cbr 1000 ------- 0 2.0 5.0 6 6
r 1.008116 8 6 cbr 1000 ------- 0 2.0 5.0 6 6
+ 1.008116 6 7 cbr 1000 ------- 0 2.0 5.0 6 6
- 1.008116 6 7 cbr 1000 ------- 0 2.0 5.0 6 6
r 1.021316 6 7 cbr 1000 ------- 0 2.0 5.0 6 6
h 1.021316 7 9 cbr 1000 ------- 0 2.0 5.0 6 6
+ 1.031316 7 9 cbr 1000 ------- 0 2.0 5.0 6 6
- 1.031316 7 9 cbr 1000 ------- 0 2.0 5.0 6 6
r 1.049432 9 5 cbr 1000 ------- 0 2.0 5.0 6 6
h 1.06 2 8 cbr 1000 ------- 0 2.0 5.0 7 7
+ 1.07 2 8 cbr 1000 ------- 0 2.0 5.0 7 7
- 1.07 2 8 cbr 1000 ------- 0 2.0 5.0 7 7
r 1.088116 8 6 cbr 1000 ------- 0 2.0 5.0 7 7
+ 1.088116 6 7 cbr 1000 ------- 0 2.0 5.0 7 7
- 1.088116 6 7 cbr 1000 ------- 0 2.0 5.0 7 7
r 1.101316 6 7 cbr 1000 ------- 0 2.0 5.0 7 7
h 1.101316 7 9 cbr 1000 ------- 0 2.0 5.0 7 7
+ 1.111316 7 9 cbr 1000 ------- 0 2.0 5.0 7 7
- 1.111316 7 9 cbr 1000 ------- 0 2.0 5.0 7 7
r 1.129432 9 5 cbr 1000 ------- 0 2.0 5.0 7 7
h 1.14 2 8 cbr 1000 ------- 0 2.0 5.0 8 8
+ 1.15 2 8 cbr 1000 ------- 0 2.0 5.0 8 8
- 1.15 2 8 cbr 1000 ------- 0 2.0 5.0 8 8
r 1.168116 8 6 cbr 1000 ------- 0 2.0 5.0 8 8
+ 1.168116 6 7 cbr 1000 ------- 0 2.0 5.0 8 8
- 1.168116 6 7 cbr 1000 ------- 0 2.0 5.0 8 8
r 1.181316 6 7 cbr 1000 ------- 0 2.0 5.0 8 8
h 1.181316 7 9 cbr 1000 ------- 0 2.0 5.0 8 8
+ 1.191316 7 9 cbr 1000 ------- 0 2.0 5.0 8 8
- 1.191316 7 9 cbr 1000 ------- 0 2.0 5.0 8 8
r 1.209432 9 5 cbr 1000 ------- 0 2.0 5.0 8 8
h 1.22 2 8 cbr 1000 ------- 0 2.0 5.0 9 9
+ 1.23 2 8 cbr 1000 ------- 0 2.0 5.0 9 9
- 1.23 2 8 cbr 1000 ------- 0 2.0 5.0 9 9
r 1.248116 8 6 cbr 1000 ------- 0 2.0 5.0 9 9
+ 1.248116 6 7 cbr 1000 ------- 0 2.0 5.0 9 9
- 1.248116 6 7 cbr 1000 ------- 0 2.0 5.0 9 9
r 1.261316 6 7 cbr 1000 ------- 0 2.0 5.0 9 9
h 1.261316 7 9 cbr 1000 ------- 0 2.0 5.0 9 9
+ 1.271316 7 9 cbr 1000 ------- 0 2.0 5.0 9 9
- 1.271316 7 9 cbr 1000 ------- 0 2.0 5.0 9 9
r 1.289432 9 5 cbr 1000 ------- 0 2.0 5.0 9 9
h 1.3 2 8 cbr 1000 ------- 0 2.0 5.0 10 10
+ 1.31 2 8 cbr 1000 ------- 0 2.0 5.0 10 10
- 1.31 2 8 cbr 1000 ------- 0 2.0 5.0 10 10
r 1.328116 8 6 cbr 1000 ------- 0 2.0 5.0 10 10
d 1.328116 6 7 cbr 1000 ------- 0 2.0 5.0 10 10
h 1.38 2 8 cbr 1000 ------- 0 2.0 5.0 11 11
+ 1.39 2 8 cbr 1000 ------- 0 2.0 5.0 11 11
- 1.39 2 8 cbr 1000 ------- 0 2.0 5.0 11 11
r 1.408116 8 6 cbr 1000 ------- 0 2.0 5.0 11 11
+ 1.408116 6 7 cbr 1000 ------- 0 2.0 5.0 11 11
- 1.408116 6 7 cbr 1000 ------- 0 2.0 5.0 11 11
r 1.421316 6 7 cbr 1000 ------- 0 2.0 5.0 11 11
h 1.421316 7 9 cbr 1000 ------- 0 2.0 5.0 11 11
+ 1.431316 7 9 cbr 1000 ------- 0 2.0 5.0 11 11
- 1.431316 7 9 cbr 1000 ------- 0 2.0 5.0 11 11
r 1.449432 9 5 cbr 1000 ------- 0 2.0 5.0 11 11
h 1.46 2 8 cbr 1000 ------- 0 2.0 5.0 12 12
+ 1.47 2 8 cbr 1000 ------- 0 2.0 5.0 12 12
- 1.47 2 8 cbr 1000 ------- 0 2.0 5.0 12 12
r 1.488116 8 6 cbr 1000 ------- 0 2.0 5.0 12 12
+ 1.488116 6 7 cbr 1000 ------- 0 2.0 5.0 12 12
- 1.488116 6 7 cbr 1000 ------- 0 2.0 5.0 12 12
r 1.501316 6 7 cbr 1000 ------- 0 2.0 5.0 12 12
h 1.501316 7 9 cbr 1000 ------- 0 2.0 5.0 12 12
+ 1.511316 7 9 cbr 1000 ------- 0 2.0 5.0 12 12
- 1.511316 7 9 cbr 1000 ------- 0 2.0 5.0 12 12
r 1.529432 9 5 cbr 1000 ------- 0 2.0 5.0 12 12
h 1.54 2 8 cbr 1000 ------- 0 2.0 5.0 13 13
+ 1.55 2 8 cbr 1000 ------- 0 2.0 5.0 13 13
- 1.55 2 8 cbr 1000 ------- 0 2.0 5.0 13 13
r 1.568116 8 6 cbr 1000 ------- 0 2.0 5.0 13 13
+ 1.568116 6 7 cbr 1000 ------- 0 2.0 5.0 13 13
- 1.568116 6 7 cbr 1000 ------- 0 2.0 5.0 13 13
r 1.581316 6 7 cbr 1000 ------- 0 2.0 5.0 13 13
h 1.581316 7 9 cbr 1000 ------- 0 2.0 5.0 13 13
+ 1.591316 7 9 cbr 1000 ------- 0 2.0 5.0 13 13
- 1.591316 7 9 cbr 1000 ------- 0 2.0 5.0 13 13
r 1.609432 9 5 cbr 1000 ------- 0 2.0 5.0 13 13
h 1.62 2 8 cbr 1000 ------- 0 2.0 5.0 14 14
+ 1.63 2 8 cbr 1000 ------- 0 2.0 5.0 14 14
- 1.63 2 8 cbr 1000 ------- 0 2.0 5.0 14 14
r 1.648116 8 6 cbr 1000 ------- 0 2.0 5.0 14 14
+ 1.648116 6 7 cbr 1000 ------- 0 2.0 5.0 14 14
- 1.648116 6 7 cbr 1000 ------- 0 2.0 5.0 14 14
r 1.661316 6 7 cbr 1000 ------- 0 2.0 5.0 14 14
h 1.661316 7 9 cbr 1000 ------- 0 2.0 5.0 14 14
+ 1.671316 7 9 cbr 1000 ------- 0 2.0 5.0 14 14
- 1.671316 7 9 cbr 1000 ------- 0 2.0 5.0 14 14
r 1.689432 9 5 cbr 1000 ------- 0 2.0 5.0 14 14
h 1.7 2 8 cbr 1000 ------- 0 2.0 5.0 15 15
+ 1.71 2 8 cbr 1000 ------- 0 2.0 5.0 15 15
- 1.71 2 8 cbr 1000 ------- 0 2.0 5.0 15 15
r 1.728116 8 6 cbr 1000 ------- 0 2.0 5.0 15 15
+ 1.728116 6 7 cbr 1000 ------- 0 2.0 5.0 15 15
- 1.728116 6 7 cbr 1000 ------- 0 2.0 5.0 15 15
r 1.741316 6 7 cbr 1000 ------- 0 2.0 5.0 15 15
h 1.741316 7 9 cbr 1000 ------- 0 2.0 5.0 15 15
+ 1.751316 7 9 cbr 1000 ------- 0 2.0 5.0 15 15
- 1.751316 7 9 cbr 1000 ------- 0 2.0 5.0 15 15
r 1.769432 9 5 cbr 1000 ------- 0 2.0 5.0 15 15
h 1.78 2 8 cbr 1000 ------- 0 2.0 5.0 16 16
+ 1.79 2 8 cbr 1000 ------- 0 2.0 5.0 16 16
- 1.79 2 8 cbr 1000 ------- 0 2.0 5.0 16 16
r 1.808116 8 6 cbr 1000 ------- 0 2.0 5.0 16 16
+ 1.808116 6 7 cbr 1000 ------- 0 2.0 5.0 16 16
- 1.808116 6 7 cbr 1000 ------- 0 2.0 5.0 16 16
r 1.821316 6 7 cbr 1000 ------- 0 2.0 5.0 16 16
h 1.821316 7 9 cbr 1000 ------- 0 2.0 5.0 16 16
+ 1.831316 7 9 cbr 1000 ------- 0 2.0 5.0 16 16
- 1.831316 7 9 cbr 1000 ------- 0 2.0 5.0 16 16
r 1.849432 9 5 cbr 1000 ------- 0 2.0 5.0 16 16
h 1.86 2 8 cbr 1000 ------- 0 2.0 5.0 17 17
+ 1.87 2 8 cbr 1000 ------- 0 2.0 5.0 17 17
- 1.87 2 8 cbr 1000 ------- 0 2.0 5.0 17 17
r 1.888116 8 6 cbr 1000 ------- 0 2.0 5.0 17 17
+ 1.888116 6 7 cbr 1000 ------- 0 2.0 5.0 17 17
- 1.888116 6 7 cbr 1000 ------- 0 2.0 5.0 17 17
r 1.901316 6 7 cbr 1000 ------- 0 2.0 5.0 17 17
h 1.901316 7 9 cbr 1000 ------- 0 2.0 5.0 17 17
+ 1.911316 7 9 cbr 1000 ------- 0 2.0 5.0 17 17
- 1.911316 7 9 cbr 1000 ------- 0 2.0 5.0 17 17
r 1.929432 9 5 cbr 1000 ------- 0 2.0 5.0 17 17
h 1.94 2 8 cbr 1000 ------- 0 2.0 5.0 18 18
+ 1.95 2 8 cbr 1000 ------- 0 2.0 5.0 18 18
- 1.95 2 8 cbr 1000 ------- 0 2.0 5.0 18 18
r 1.968116 8 6 cbr 1000 ------- 0 2.0 5.0 18 18
+ 1.968116 6 7 cbr 1000 ------- 0 2.0 5.0 18 18
- 1.968116 6 7 cbr 1000 ------- 0 2.0 5.0 18 18
r 1.981316 6 7 cbr 1000 ------- 0 2.0 5.0 18 18
h 1.981316 7 9 cbr 1000 ------- 0 2.0 5.0 18 18
+ 1.991316 7 9 cbr 1000 ------- 0 2.0 5.0 18 18
- 1.991316 7 9 cbr 1000 ------- 0 2.0 5.0 18 18
r 2.009432 9 5 cbr 1000 ------- 0 2.0 5.0 18 18
h 2.02 2 8 cbr 1000 ------- 0 2.0 5.0 19 19
+ 2.03 2 8 cbr 1000 ------- 0 2.0 5.0 19 19
- 2.03 2 8 cbr 1000 ------- 0 2.0 5.0 19 19
r 2.048116 8 6 cbr 1000 ------- 0 2.0 5.0 19 19
+ 2.048116 6 7 cbr 1000 ------- 0 2.0 5.0 19 19
- 2.048116 6 7 cbr 1000 ------- 0 2.0 5.0 19 19
r 2.061316 6 7 cbr 1000 ------- 0 2.0 5.0 19 19
h 2.061316 7 9 cbr 1000 ------- 0 2.0 5.0 19 19
+ 2.071316 7 9 cbr 1000 ------- 0 2.0 5.0 19 19
- 2.071316 7 9 cbr 1000 ------- 0 2.0 5.0 19 19
r 2.089432 9 5 cbr 1000 ------- 0 2.0 5.0 19 19
h 2.1 2 8 cbr 1000 ------- 0 2.0 5.0 20 20
+ 2.11 2 8 cbr 1000 ------- 0 2.0 5.0 20 20
- 2.11 2 8 cbr 1000 ------- 0 2.0 5.0 20 20
r 2.128116 8 6 cbr 1000 ------- 0 2.0 5.0 20 20
+ 2.128116 6 7 cbr 1000 ------- 0 2.0 5.0 20 20
- 2.128116 6 7 cbr 1000 ------- 0 2.0 5.0 20 20
r 2.141316 6 7 cbr 1000 ------- 0 2.0 5.0 20 20
h 2.141316 7 9 cbr 1000 ------- 0 2.0 5.0 20 20
+ 2.151316 7 9 cbr 1000 ------- 0 2.0 5.0 20 20
- 2.151316 7 9 cbr 1000 ------- 0 2.0 5.0 20 20
r 2.169432 9 5 cbr 1000 ------- 0 2.0 5.0 20 20
h 2.18 2 8 cbr 1000 ------- 0 2.0 5.0 21 21
+ 2.19 2 8 cbr 1000 ------- 0 2.0 5.0 21 21
- 2.19 2 8 cbr 1000 ------- 0 2.0 5.0 21 21
r 2.208116 8 6 cbr 1000 ------- 0 2.0 5.0 21 21
+ 2.208116 6 7 cbr 1000 ------- 0 2.0 5.0 21 21
- 2.208116 6 7 cbr 1000 ------- 0 2.0 5.0 21 21
r 2.221316 6 7 cbr 1000 ------- 0 2.0 5.0 21 21
h 2.221316 7 9 cbr 1000 ------- 0 2.0 5.0 21 21
+ 2.231316 7 9 cbr 1000 ------- 0 2.0 5.0 21 21
- 2.231316 7 9 cbr 1000 ------- 0 2.0 5.0 21 21
r 2.249432 9 5 cbr 1000 ------- 0 2.0 5.0 21 21
h 2.26 2 8 cbr 1000 ------- 0 2.0 5.0 22 22
+ 2.27 2 8 cbr 1000 ------- 0 2.0 5.0 22 22
- 2.27 2 8 cbr 1000 ------- 0 2.0 5.0 22 22
r 2.288116 8 6 cbr 1000 ------- 0 2.0 5.0 22 22
+ 2.288116 6 7 cbr 1000 ------- 0 2.0 5.0 22 22
- 2.288116 6 7 cbr 1000 ------- 0 2.0 5.0 22 22
r 2.301316 6 7 cbr 1000 ------- 0 2.0 5.0 22 22
h 2.301316 7 9 cbr 1000 ------- 0 2.0 5.0 22 22
+ 2.311316 7 9 cbr 1000 ------- 0 2.0 5.0 22 22
- 2.311316 7 9 cbr 1000 ------- 0 2.0 5.0 22 22
r 2.329432 9 5 cbr 1000 ------- 0 2.0 5.0 22 22
h 2.34 2 8 cbr 1000 ------- 0 2.0 5.0 23 23
+ 2.35 2 8 cbr 1000 ------- 0 2.0 5.0 23 23
- 2.35 2 8 cbr 1000 ------- 0 2.0 5.0 23 23
r 2.368116 8 6 cbr 1000 ------- 0 2.0 5.0 23 23
+ 2.368116 6 7 cbr 1000 ------- 0 2.0 5.0 23 23
- 2.368116 6 7 cbr 1000 ------- 0 2.0 5.0 23 23
r 2.381316 6 7 cbr 1000 ------- 0 2.0 5.0 23 23
h 2.381316 7 9 cbr 1000 ------- 0 2.0 5.0 23 23
+ 2.391316 7 9 cbr 1000 ------- 0 2.0 5.0 23 23
- 2.391316 7 9 cbr 1000 ------- 0 2.0 5.0 23 23
r 2.409432 9 5 cbr 1000 ------- 0 2.0 5.0 23 23
h 2.42 2 8 cbr 1000 ------- 0 2.0 5.0 24 24
+ 2.43 2 8 cbr 1000 ------- 0 2.0 5.0 24 24
- 2.43 2 8 cbr 1000 ------- 0 2.0 5.0 24 24
r 2.448116 8 6 cbr 1000 ------- 0 2.0 5.0 24 24
+ 2.448116 6 7 cbr 1000 ------- 0 2.0 5.0 24 24
- 2.448116 6 7 cbr 1000 ------- 0 2.0 5.0 24 24
r 2.461316 6 7 cbr 1000 ------- 0 2.0 5.0 24 24
h 2.461316 7 9 cbr 1000 ------- 0 2.0 5.0 24 24
+ 2.471316 7 9 cbr 1000 ------- 0 2.0 5.0 24 24
- 2.471316 7 9 cbr 1000 ------- 0 2.0 5.0 24 24
r 2.489432 9 5 cbr 1000 ------- 0 2.0 5.0 24 24
h 2.5 2 8 cbr 1000 ------- 0 2.0 5.0 25 25
+ 2.51 2 8 cbr 1000 ------- 0 2.0 5.0 25 25
- 2.51 2 8 cbr 1000 ------- 0 2.0 5.0 25 25
r 2.528116 8 6 cbr 1000 ------- 0 2.0 5.0 25 25
+ 2.528116 6 7 cbr 1000 ------- 0 2.0 5.0 25 25
- 2.528116 6 7 cbr 1000 ------- 0 2.0 5.0 25 25
r 2.541316 6 7 cbr 1000 ------- 0 2.0 5.0 25 25
h 2.541316 7 9 cbr 1000 ------- 0 2.0 5.0 25 25
+ 2.551316 7 9 cbr 1000 ------- 0 2.0 5.0 25 25
- 2.551316 7 9 cbr 1000 ------- 0 2.0 5.0 25 25
r 2.569432 9 5 cbr 1000 ------- 0 2.0 5.0 25 25
h 2.58 2 8 cbr 1000 ------- 0 2.0 5.0 26 26
+ 2.59 2 8 cbr 1000 ------- 0 2.0 5.0 26 26
- 2.59 2 8 cbr 1000 ------- 0 2.0 5.0 26 26
r 2.608116 8 6 cbr 1000 ------- 0 2.0 5.0 26 26
+ 2.608116 6 7 cbr 1000 ------- 0 2.0 5.0 26 26
- 2.608116 6 7 cbr 1000 ------- 0 2.0 5.0 26 26
r 2.621316 6 7 cbr 1000 ------- 0 2.0 5.0 26 26
h 2.621316 7 9 cbr 1000 ------- 0 2.0 5.0 26 26
+ 2.631316 7 9 cbr 1000 ------- 0 2.0 5.0 26 26
- 2.631316 7 9 cbr 1000 ------- 0 2.0 5.0 26 26
r 2.649432 9 5 cbr 1000 ------- 0 2.0 5.0 26 26
h 2.66 2 8 cbr 1000 ------- 0 2.0 5.0 27 27
+ 2.67 2 8 cbr 1000 ------- 0 2.0 5.0 27 27
- 2.67 2 8 cbr 1000 ------- 0 2.0 5.0 27 27
r 2.688116 8 6 cbr 1000 ------- 0 2.0 5.0 27 27
+ 2.688116 6 7 cbr 1000 ------- 0 2.0 5.0 27 27
- 2.688116 6 7 cbr 1000 ------- 0 2.0 5.0 27 27
r 2.701316 6 7 cbr 1000 ------- 0 2.0 5.0 27 27
h 2.701316 7 9 cbr 1000 ------- 0 2.0 5.0 27 27
+ 2.711316 7 9 cbr 1000 ------- 0 2.0 5.0 27 27
- 2.711316 7 9 cbr 1000 ------- 0 2.0 5.0 27 27
r 2.729432 9 5 cbr 1000 ------- 0 2.0 5.0 27 27
h 2.74 2 8 cbr 1000 ------- 0 2.0 5.0 28 28
+ 2.75 2 8 cbr 1000 ------- 0 2.0 5.0 28 28
- 2.75 2 8 cbr 1000 ------- 0 2.0 5.0 28 28
r 2.768116 8 6 cbr 1000 ------- 0 2.0 5.0 28 28
+ 2.768116 6 7 cbr 1000 ------- 0 2.0 5.0 28 28
- 2.768116 6 7 cbr 1000 ------- 0 2.0 5.0 28 28
r 2.781316 6 7 cbr 1000 ------- 0 2.0 5.0 28 28
h 2.781316 7 9 cbr 1000 ------- 0 2.0 5.0 28 28
+ 2.791316 7 9 cbr 1000 ------- 0 2.0 5.0 28 28
- 2.791316 7 9 cbr 1000 ------- 0 2.0 5.0 28 28
r 2.809432 9 5 cbr 1000 ------- 0 2.0 5.0 28 28
h 2.82 2 8 cbr 1000 ------- 0 2.0 5.0 29 29
+ 2.83 2 8 cbr 1000 ------- 0 2.0 5.0 29 29
- 2.83 2 8 cbr 1000 ------- 0 2.0 5.0 29 29
r 2.848116 8 6 cbr 1000 ------- 0 2.0 5.0 29 29
+ 2.848116 6 7 cbr 1000 ------- 0 2.0 5.0 29 29
- 2.848116 6 7 cbr 1000 ------- 0 2.0 5.0 29 29
r 2.861316 6 7 cbr 1000 ------- 0 2.0 5.0 29 29
h 2.861316 7 9 cbr 1000 ------- 0 2.0 5.0 29 29
+ 2.871316 7 9 cbr 1000 ------- 0 2.0 5.0 29 29
- 2.871316 7 9 cbr 1000 ------- 0 2.0 5.0 29 29
r 2.889432 9 5 cbr 1000 ------- 0 2.0 5.0 29 29
h 2.9 2 8 cbr 1000 ------- 0 2.0 5.0 30 30
+ 2.91 2 8 cbr 1000 ------- 0 2.0 5.0 30 30
- 2.91 2 8 cbr 1000 ------- 0 2.0 5.0 30 30
r 2.928116 8 6 cbr 1000 ------- 0 2.0 5.0 30 30
+ 2.928116 6 7 cbr 1000 ------- 0 2.0 5.0 30 30
- 2.928116 6 7 cbr 1000 ------- 0 2.0 5.0 30 30
r 2.941316 6 7 cbr 1000 ------- 0 2.0 5.0 30 30
h 2.941316 7 9 cbr 1000 ------- 0 2.0 5.0 30 30
+ 2.951316 7 9 cbr 1000 ------- 0 2.0 5.0 30 30
- 2.951316 7 9 cbr 1000 ------- 0 2.0 5.0 30 30
r 2.969432 9 5 cbr 1000 ------- 0 2.0 5.0 30 30
h 2.98 2 8 cbr 1000 ------- 0 2.0 5.0 31 31
+ 2.99 2 8 cbr 1000 ------- 0 2.0 5.0 31 31
- 2.99 2 8 cbr 1000 ------- 0 2.0 5.0 31 31
r 3.008116 8 6 cbr 1000 ------- 0 2.0 5.0 31 31
+ 3.008116 6 7 cbr 1000 ------- 0 2.0 5.0 31 31
- 3.008116 6 7 cbr 1000 ------- 0 2.0 5.0 31 31
r 3.021316 6 7 cbr 1000 ------- 0 2.0 5.0 31 31
h 3.021316 7 9 cbr 1000 ------- 0 2.0 5.0 31 31
+ 3.031316 7 9 cbr 1000 ------- 0 2.0 5.0 31 31
- 3.031316 7 9 cbr 1000 ------- 0 2.0 5.0 31 31
r 3.049432 9 5 cbr 1000 ------- 0 2.0 5.0 31 31
h 3.06 2 8 cbr 1000 ------- 0 2.0 5.0 32 32
+ 3.07 2 8 cbr 1000 ------- 0 2.0 5.0 32 32
- 3.07 2 8 cbr 1000 ------- 0 2.0 5.0 32 32
r 3.088116 8 6 cbr 1000 ------- 0 2.0 5.0 32 32
+ 3.088116 6 7 cbr 1000 ------- 0 2.0 5.0 32 32
- 3.088116 6 7 cbr 1000 ------- 0 2.0 5.0 32 32
r 3.101316 6 7 cbr 1000 ------- 0 2.0 5.0 32 32
h 3.101316 7 9 cbr 1000 ------- 0 2.0 5.0 32 32
+ 3.111316 7 9 cbr 1000 ------- 0 2.0 5.0 32 32
- 3.111316 7 9 cbr 1000 ------- 0 2.0 5.0 32 32
r 3.129432 9 5 cbr 1000 ------- 0 2.0 5.0 32 32
h 3.14 2 8 cbr 1000 ------- 0 2.0 5.0 33 33
+ 3.15 2 8 cbr 1000 ------- 0 2.0 5.0 33 33
- 3.15 2 8 cbr 1000 ------- 0 2.0 5.0 33 33
r 3.168116 8 6 cbr 1000 ------- 0 2.0 5.0 33 33
+ 3.168116 6 7 cbr 1000 ------- 0 2.0 5.0 33 33
- 3.168116 6 7 cbr 1000 ------- 0 2.0 5.0 33 33
r 3.181316 6 7 cbr 1000 ------- 0 2.0 5.0 33 33
h 3.181316 7 9 cbr 1000 ------- 0 2.0 5.0 33 33
+ 3.191316 7 9 cbr 1000 ------- 0 2.0 5.0 33 33
- 3.191316 7 9 cbr 1000 ------- 0 2.0 5.0 33 33
r 3.209432 9 5 cbr 1000 ------- 0 2.0 5.0 33 33
h 3.22 2 8 cbr 1000 ------- 0 2.0 5.0 34 34
+ 3.23 2 8 cbr 1000 ------- 0 2.0 5.0 34 34
- 3.23 2 8 cbr 1000 ------- 0 2.0 5.0 34 34
r 3.248116 8 6 cbr 1000 ------- 0 2.0 5.0 34 34
+ 3.248116 6 7 cbr 1000 ------- 0 2.0 5.0 34 34
- 3.248116 6 7 cbr 1000 ------- 0 2.0 5.0 34 34
r 3.261316 6 7 cbr 1000 ------- 0 2.0 5.0 34 34
h 3.261316 7 9 cbr 1000 ------- 0 2.0 5.0 34 34
+ 3.271316 7 9 cbr 1000 ------- 0 2.0 5.0 34 34
- 3.271316 7 9 cbr 1000 ------- 0 2.0 5.0 34 34
r 3.289432 9 5 cbr 1000 ------- 0 2.0 5.0 34 34
h 3.3 2 8 cbr 1000 ------- 0 2.0 5.0 35 35
+ 3.31 2 8 cbr 1000 ------- 0 2.0 5.0 35 35
- 3.31 2 8 cbr 1000 ------- 0 2.0 5.0 35 35
r 3.328116 8 6 cbr 1000 ------- 0 2.0 5.0 35 35
+ 3.328116 6 7 cbr 1000 ------- 0 2.0 5.0 35 35
- 3.328116 6 7 cbr 1000 ------- 0 2.0 5.0 35 35
r 3.341316 6 7 cbr 1000 ------- 0 2.0 5.0 35 35
h 3.341316 7 9 cbr 1000 ------- 0 2.0 5.0 35 35
+ 3.351316 7 9 cbr 1000 ------- 0 2.0 5.0 35 35
- 3.351316 7 9 cbr 1000 ------- 0 2.0 5.0 35 35
r 3.369432 9 5 cbr 1000 ------- 0 2.0 5.0 35 35
h 3.38 2 8 cbr 1000 ------- 0 2.0 5.0 36 36
+ 3.39 2 8 cbr 1000 ------- 0 2.0 5.0 36 36
- 3.39 2 8 cbr 1000 ------- 0 2.0 5.0 36 36
r 3.408116 8 6 cbr 1000 ------- 0 2.0 5.0 36 36
+ 3.408116 6 7 cbr 1000 ------- 0 2.0 5.0 36 36
- 3.408116 6 7 cbr 1000 ------- 0 2.0 5.0 36 36
r 3.421316 6 7 cbr 1000 ------- 0 2.0 5.0 36 36
h 3.421316 7 9 cbr 1000 ------- 0 2.0 5.0 36 36
+ 3.431316 7 9 cbr 1000 ------- 0 2.0 5.0 36 36
- 3.431316 7 9 cbr 1000 ------- 0 2.0 5.0 36 36
r 3.449432 9 5 cbr 1000 ------- 0 2.0 5.0 36 36
h 3.46 2 8 cbr 1000 ------- 0 2.0 5.0 37 37
+ 3.47 2 8 cbr 1000 ------- 0 2.0 5.0 37 37
- 3.47 2 8 cbr 1000 ------- 0 2.0 5.0 37 37
r 3.488116 8 6 cbr 1000 ------- 0 2.0 5.0 37 37
+ 3.488116 6 7 cbr 1000 ------- 0 2.0 5.0 37 37
- 3.488116 6 7 cbr 1000 ------- 0 2.0 5.0 37 37
r 3.501316 6 7 cbr 1000 ------- 0 2.0 5.0 37 37
h 3.501316 7 9 cbr 1000 ------- 0 2.0 5.0 37 37
+ 3.511316 7 9 cbr 1000 ------- 0 2.0 5.0 37 37
- 3.511316 7 9 cbr 1000 ------- 0 2.0 5.0 37 37
r 3.529432 9 5 cbr 1000 ------- 0 2.0 5.0 37 37
h 3.54 2 8 cbr 1000 ------- 0 2.0 5.0 38 38
+ 3.55 2 8 cbr 1000 ------- 0 2.0 5.0 38 38
- 3.55 2 8 cbr 1000 ------- 0 2.0 5.0 38 38
r 3.568116 8 6 cbr 1000 ------- 0 2.0 5.0 38 38
+ 3.568116 6 7 cbr 1000 ------- 0 2.0 5.0 38 38
- 3.568116 6 7 cbr 1000 ------- 0 2.0 5.0 38 38
r 3.581316 6 7 cbr 1000 ------- 0 2.0 5.0 38 38
h 3.581316 7 9 cbr 1000 ------- 0 2.0 5.0 38 38
+ 3.591316 7 9 cbr 1000 ------- 0 2.0 5.0 38 38
- 3.591316 7 9 cbr 1000 ------- 0 2.0 5.0 38 38
r 3.609432 9 5 cbr 1000 ------- 0 2.0 5.0 38 38
h 3.62 2 8 cbr 1000 ------- 0 2.0 5.0 39 39
+ 3.63 2 8 cbr 1000 ------- 0 2.0 5.0 39 39
- 3.63 2 8 cbr 1000 ------- 0 2.0 5.0 39 39
r 3.648116 8 6 cbr 1000 ------- 0 2.0 5.0 39 39
+ 3.648116 6 7 cbr 1000 ------- 0 2.0 5.0 39 39
- 3.648116 6 7 cbr 1000 ------- 0 2.0 5.0 39 39
r 3.661316 6 7 cbr 1000 ------- 0 2.0 5.0 39 39
h 3.661316 7 9 cbr 1000 ------- 0 2.0 5.0 39 39
+ 3.671316 7 9 cbr 1000 ------- 0 2.0 5.0 39 39
- 3.671316 7 9 cbr 1000 ------- 0 2.0 5.0 39 39
r 3.689432 9 5 cbr 1000 ------- 0 2.0 5.0 39 39
h 3.7 2 8 cbr 1000 ------- 0 2.0 5.0 40 40
+ 3.71 2 8 cbr 1000 ------- 0 2.0 5.0 40 40
- 3.71 2 8 cbr 1000 ------- 0 2.0 5.0 40 40
r 3.728116 8 6 cbr 1000 ------- 0 2.0 5.0 40 40
+ 3.728116 6 7 cbr 1000 ------- 0 2.0 5.0 40 40
- 3.728116 6 7 cbr 1000 ------- 0 2.0 5.0 40 40
r 3.741316 6 7 cbr 1000 ------- 0 2.0 5.0 40 40
h 3.741316 7 9 cbr 1000 ------- 0 2.0 5.0 40 40
+ 3.751316 7 9 cbr 1000 ------- 0 2.0 5.0 40 40
- 3.751316 7 9 cbr 1000 ------- 0 2.0 5.0 40 40
r 3.769432 9 5 cbr 1000 ------- 0 2.0 5.0 40 40
h 3.78 2 8 cbr 1000 ------- 0 2.0 5.0 41 41
+ 3.79 2 8 cbr 1000 ------- 0 2.0 5.0 41 41
- 3.79 2 8 cbr 1000 ------- 0 2.0 5.0 41 41
r 3.808116 8 6 cbr 1000 ------- 0 2.0 5.0 41 41
d 3.808116 6 7 cbr 1000 ------- 0 2.0 5.0 41 41
h 3.86 2 8 cbr 1000 ------- 0 2.0 5.0 42 42
+ 3.87 2 8 cbr 1000 ------- 0 2.0 5.0 42 42
- 3.87 2 8 cbr 1000 ------- 0 2.0 5.0 42 42
r 3.888116 8 6 cbr 1000 ------- 0 2.0 5.0 42 42
+ 3.888116 6 7 cbr 1000 ------- 0 2.0 5.0 42 42
- 3.888116 6 7 cbr 1000 ------- 0 2.0 5.0 42 42
r 3.901316 6 7 cbr 1000 ------- 0 2.0 5.0 42 42
h 3.901316 7 9 cbr 1000 ------- 0 2.0 5.0 42 42
+ 3.911316 7 9 cbr 1000 ------- 0 2.0 5.0 42 42
- 3.911316 7 9 cbr 1000 ------- 0 2.0 5.0 42 42
r 3.929432 9 5 cbr 1000 ------- 0 2.0 5.0 42 42
h 3.94 2 8 cbr 1000 ------- 0 2.0 5.0 43 43
+ 3.95 2 8 cbr 1000 ------- 0 2.0 5.0 43 43
- 3.95 2 8 cbr 1000 ------- 0 2.0 5.0 43 43
r 3.968116 8 6 cbr 1000 ------- 0 2.0 5.0 43 43
+ 3.968116 6 7 cbr 1000 ------- 0 2.0 5.0 43 43
- 3.968116 6 7 cbr 1000 ------- 0 2.0 5.0 43 43
r 3.981316 6 7 cbr 1000 ------- 0 2.0 5.0 43 43
h 3.981316 7 9 cbr 1000 ------- 0 2.0 5.0 43 43
+ 3.991316 7 9 cbr 1000 ------- 0 2.0 5.0 43 43
- 3.991316 7 9 cbr 1000 ------- 0 2.0 5.0 43 43
r 4.009432 9 5 cbr 1000 ------- 0 2.0 5.0 43 43
h 4.02 2 8 cbr 1000 ------- 0 2.0 5.0 44 44
+ 4.03 2 8 cbr 1000 ------- 0 2.0 5.0 44 44
- 4.03 2 8 cbr 1000 ------- 0 2.0 5.0 44 44
r 4.048116 8 6 cbr 1000 ------- 0 2.0 5.0 44 44
+ 4.048116 6 7 cbr 1000 ------- 0 2.0 5.0 44 44
- 4.048116 6 7 cbr 1000 ------- 0 2.0 5.0 44 44
r 4.061316 6 7 cbr 1000 ------- 0 2.0 5.0 44 44
h 4.061316 7 9 cbr 1000 ------- 0 2.0 5.0 44 44
+ 4.071316 7 9 cbr 1000 ------- 0 2.0 5.0 44 44
- 4.071316 7 9 cbr 1000 ------- 0 2.0 5.0 44 44
r 4.089432 9 5 cbr 1000 ------- 0 2.0 5.0 44 44
h 4.1 2 8 cbr 1000 ------- 0 2.0 5.0 45 45
+ 4.11 2 8 cbr 1000 ------- 0 2.0 5.0 45 45
- 4.11 2 8 cbr 1000 ------- 0 2.0 5.0 45 45
r 4.128116 8 6 cbr 1000 ------- 0 2.0 5.0 45 45
+ 4.128116 6 7 cbr 1000 ------- 0 2.0 5.0 45 45
- 4.128116 6 7 cbr 1000 ------- 0 2.0 5.0 45 45
r 4.141316 6 7 cbr 1000 ------- 0 2.0 5.0 45 45
h 4.141316 7 9 cbr 1000 ------- 0 2.0 5.0 45 45
+ 4.151316 7 9 cbr 1000 ------- 0 2.0 5.0 45 45
- 4.151316 7 9 cbr 1000 ------- 0 2.0 5.0 45 45
r 4.169432 9 5 cbr 1000 ------- 0 2.0 5.0 45 45
h 4.18 2 8 cbr 1000 ------- 0 2.0 5.0 46 46
+ 4.19 2 8 cbr 1000 ------- 0 2.0 5.0 46 46
- 4.19 2 8 cbr 1000 ------- 0 2.0 5.0 46 46
r 4.208116 8 6 cbr 1000 ------- 0 2.0 5.0 46 46
+ 4.208116 6 7 cbr 1000 ------- 0 2.0 5.0 46 46
- 4.208116 6 7 cbr 1000 ------- 0 2.0 5.0 46 46
r 4.221316 6 7 cbr 1000 ------- 0 2.0 5.0 46 46
h 4.221316 7 9 cbr 1000 ------- 0 2.0 5.0 46 46
+ 4.231316 7 9 cbr 1000 ------- 0 2.0 5.0 46 46
- 4.231316 7 9 cbr 1000 ------- 0 2.0 5.0 46 46
r 4.249432 9 5 cbr 1000 ------- 0 2.0 5.0 46 46
h 4.26 2 8 cbr 1000 ------- 0 2.0 5.0 47 47
+ 4.27 2 8 cbr 1000 ------- 0 2.0 5.0 47 47
- 4.27 2 8 cbr 1000 ------- 0 2.0 5.0 47 47
r 4.288116 8 6 cbr 1000 ------- 0 2.0 5.0 47 47
+ 4.288116 6 7 cbr 1000 ------- 0 2.0 5.0 47 47
- 4.288116 6 7 cbr 1000 ------- 0 2.0 5.0 47 47
r 4.301316 6 7 cbr 1000 ------- 0 2.0 5.0 47 47
h 4.301316 7 9 cbr 1000 ------- 0 2.0 5.0 47 47
+ 4.311316 7 9 cbr 1000 ------- 0 2.0 5.0 47 47
- 4.311316 7 9 cbr 1000 ------- 0 2.0 5.0 47 47
r 4.329432 9 5 cbr 1000 ------- 0 2.0 5.0 47 47
h 4.34 2 8 cbr 1000 ------- 0 2.0 5.0 48 48
+ 4.35 2 8 cbr 1000 ------- 0 2.0 5.0 48 48
- 4.35 2 8 cbr 1000 ------- 0 2.0 5.0 48 48
r 4.368116 8 6 cbr 1000 ------- 0 2.0 5.0 48 48
+ 4.368116 6 7 cbr 1000 ------- 0 2.0 5.0 48 48
- 4.368116 6 7 cbr 1000 ------- 0 2.0 5.0 48 48
r 4.381316 6 7 cbr 1000 ------- 0 2.0 5.0 48 48
h 4.381316 7 9 cbr 1000 ------- 0 2.0 5.0 48 48
+ 4.391316 7 9 cbr 1000 ------- 0 2.0 5.0 48 48
- 4.391316 7 9 cbr 1000 ------- 0 2.0 5.0 48 48
r 4.409432 9 5 cbr 1000 ------- 0 2.0 5.0 48 48
h 4.42 2 8 cbr 1000 ------- 0 2.0 5.0 49 49
+ 4.43 2 8 cbr 1000 ------- 0 2.0 5.0 49 49
- 4.43 2 8 cbr 1000 ------- 0 2.0 5.0 49 49
r 4.448116 8 6 cbr 1000 ------- 0 2.0 5.0 49 49
+ 4.448116 6 7 cbr 1000 ------- 0 2.0 5.0 49 49
- 4.448116 6 7 cbr 1000 ------- 0 2.0 5.0 49 49
r 4.461316 6 7 cbr 1000 ------- 0 2.0 5.0 49 49
h 4.461316 7 9 cbr 1000 ------- 0 2.0 5.0 49 49
+ 4.471316 7 9 cbr 1000 ------- 0 2.0 5.0 49 49
- 4.471316 7 9 cbr 1000 ------- 0 2.0 5.0 49 49
r 4.489432 9 5 cbr 1000 ------- 0 2.0 5.0 49 49
h 4.5 2 8 cbr 1000 ------- 0 2.0 5.0 50 50
+ 4.51 2 8 cbr 1000 ------- 0 2.0 5.0 50 50
- 4.51 2 8 cbr 1000 ------- 0 2.0 5.0 50 50
r 4.528116 8 6 cbr 1000 ------- 0 2.0 5.0 50 50
+ 4.528116 6 7 cbr 1000 ------- 0 2.0 5.0 50 50
- 4.528116 6 7 cbr 1000 ------- 0 2.0 5.0 50 50
r 4.541316 6 7 cbr 1000 ------- 0 2.0 5.0 50 50
h 4.541316 7 9 cbr 1000 ------- 0 2.0 5.0 50 50
+ 4.551316 7 9 cbr 1000 ------- 0 2.0 5.0 50 50
- 4.551316 7 9 cbr 1000 ------- 0 2.0 5.0 50 50
r 4.569432 9 5 cbr 1000 ------- 0 2.0 5.0 50 50
h 4.58 2 8 cbr 1000 ------- 0 2.0 5.0 51 51
+ 4.59 2 8 cbr 1000 ------- 0 2.0 5.0 51 51
- 4.59 2 8 cbr 1000 ------- 0 2.0 5.0 51 51
r 4.608116 8 6 cbr 1000 ------- 0 2.0 5.0 51 51
+ 4.608116 6 7 cbr 1000 ------- 0 2.0 5.0 51 51
- 4.608116 6 7 cbr 1000 ------- 0 2.0 5.0 51 51
r 4.621316 6 7 cbr 1000 ------- 0 2.0 5.0 51 51
h 4.621316 7 9 cbr 1000 ------- 0 2.0 5.0 51 51
+ 4.631316 7 9 cbr 1000 ------- 0 2.0 5.0 51 51
- 4.631316 7 9 cbr 1000 ------- 0 2.0 5.0 51 51
r 4.649432 9 5 cbr 1000 ------- 0 2.0 5.0 51 51
h 4.66 2 8 cbr 1000 ------- 0 2.0 5.0 52 52
+ 4.67 2 8 cbr 1000 ------- 0 2.0 5.0 52 52
- 4.67 2 8 cbr 1000 ------- 0 2.0 5.0 52 52
r 4.688116 8 6 cbr 1000 ------- 0 2.0 5.0 52 52
+ 4.688116 6 7 cbr 1000 ------- 0 2.0 5.0 52 52
- 4.688116 6 7 cbr 1000 ------- 0 2.0 5.0 52 52
r 4.701316 6 7 cbr 1000 ------- 0 2.0 5.0 52 52
h 4.701316 7 9 cbr 1000 ------- 0 2.0 5.0 52 52
+ 4.711316 7 9 cbr 1000 ------- 0 2.0 5.0 52 52
- 4.711316 7 9 cbr 1000 ------- 0 2.0 5.0 52 52
r 4.729432 9 5 cbr 1000 ------- 0 2.0 5.0 52 52
h 4.74 2 8 cbr 1000 ------- 0 2.0 5.0 53 53
+ 4.75 2 8 cbr 1000 ------- 0 2.0 5.0 53 53
- 4.75 2 8 cbr 1000 ------- 0 2.0 5.0 53 53
h 4.754185 0 8 tcp 40 ------- 0 0.0 3.0 0 54
+ 4.764185 0 8 tcp 40 ------- 0 0.0 3.0 0 54
- 4.764185 0 8 tcp 40 ------- 0 0.0 3.0 0 54
r 4.768116 8 6 cbr 1000 ------- 0 2.0 5.0 53 53
+ 4.768116 6 7 cbr 1000 ------- 0 2.0 5.0 53 53
- 4.768116 6 7 cbr 1000 ------- 0 2.0 5.0 53 53
r 4.774701 8 6 tcp 40 ------- 0 0.0 3.0 0 54
+ 4.774701 6 7 tcp 40 ------- 0 0.0 3.0 0 54
- 4.774701 6 7 tcp 40 ------- 0 0.0 3.0 0 54
r 4.781316 6 7 cbr 1000 ------- 0 2.0 5.0 53 53
h 4.781316 7 9 cbr 1000 ------- 0 2.0 5.0 53 53
r 4.784829 6 7 tcp 40 ------- 0 0.0 3.0 0 54
h 4.784829 7 9 tcp 40 ------- 0 0.0 3.0 0 54
+ 4.791316 7 9 cbr 1000 ------- 0 2.0 5.0 53 53
- 4.791316 7 9 cbr 1000 ------- 0 2.0 5.0 53 53
+ 4.794829 7 9 tcp 40 ------- 0 0.0 3.0 0 54
- 4.799524 7 9 tcp 40 ------- 0 0.0 3.0 0 54
r 4.809432 9 5 cbr 1000 ------- 0 2.0 5.0 53 53
r 4.81004 9 3 tcp 40 ------- 0 0.0 3.0 0 54
h 4.81004 3 9 ack 40 ------- 0 3.0 0.0 0 55
h 4.82 2 8 cbr 1000 ------- 0 2.0 5.0 54 56
+ 4.82004 3 9 ack 40 ------- 0 3.0 0.0 0 55
- 4.82004 3 9 ack 40 ------- 0 3.0 0.0 0 55
+ 4.83 2 8 cbr 1000 ------- 0 2.0 5.0 54 56
- 4.83 2 8 cbr 1000 ------- 0 2.0 5.0 54 56
r 4.830556 9 7 ack 40 ------- 0 3.0 0.0 0 55
+ 4.830556 7 6 ack 40 ------- 0 3.0 0.0 0 55
- 4.830556 7 6 ack 40 ------- 0 3.0 0.0 0 55
r 4.840684 7 6 ack 40 ------- 0 3.0 0.0 0 55
h 4.840684 6 8 ack 40 ------- 0 3.0 0.0 0 55
r 4.848116 8 6 cbr 1000 ------- 0 2.0 5.0 54 56
+ 4.848116 6 7 cbr 1000 ------- 0 2.0 5.0 54 56
- 4.848116 6 7 cbr 1000 ------- 0 2.0 5.0 54 56
+ 4.850684 6 8 ack 40 ------- 0 3.0 0.0 0 55
- 4.850684 6 8 ack 40 ------- 0 3.0 0.0 0 55
r 4.8612 8 0 ack 40 ------- 0 3.0 0.0 0 55
h 4.8612 0 8 tcp 592 ------- 0 0.0 3.0 1 57
r 4.861316 6 7 cbr 1000 ------- 0 2.0 5.0 54 56
h 4.861316 7 9 cbr 1000 ------- 0 2.0 5.0 54 56
+ 4.8712 0 8 tcp 592 ------- 0 0.0 3.0 1 57
- 4.8712 0 8 tcp 592 ------- 0 0.0 3.0 1 57
+ 4.871316 7 9 cbr 1000 ------- 0 2.0 5.0 54 56
- 4.871316 7 9 cbr 1000 ------- 0 2.0 5.0 54 56
r 4.886052 8 6 tcp 592 ------- 0 0.0 3.0 1 57
+ 4.886052 6 7 tcp 592 ------- 0 0.0 3.0 1 57
- 4.886052 6 7 tcp 592 ------- 0 0.0 3.0 1 57
r 4.889432 9 5 cbr 1000 ------- 0 2.0 5.0 54 56
r 4.897946 6 7 tcp 592 ------- 0 0.0 3.0 1 57
h 4.897946 7 9 tcp 592 ------- 0 0.0 3.0 1 57
h 4.9 2 8 cbr 1000 ------- 0 2.0 5.0 55 58
+ 4.907946 7 9 tcp 592 ------- 0 0.0 3.0 1 57
- 4.907946 7 9 tcp 592 ------- 0 0.0 3.0 1 57
+ 4.91 2 8 cbr 1000 ------- 0 2.0 5.0 55 58
- 4.91 2 8 cbr 1000 ------- 0 2.0 5.0 55 58
r 4.922798 9 3 tcp 592 ------- 0 0.0 3.0 1 57
h 4.922798 3 9 ack 40 ------- 0 3.0 0.0 1 59
r 4.928116 8 6 cbr 1000 ------- 0 2.0 5.0 55 58
+ 4.928116 6 7 cbr 1000 ------- 0 2.0 5.0 55 58
- 4.928116 6 7 cbr 1000 ------- 0 2.0 5.0 55 58
+ 4.932798 3 9 ack 40 ------- 0 3.0 0.0 1 59
- 4.932798 3 9 ack 40 ------- 0 3.0 0.0 1 59
r 4.941316 6 7 cbr 1000 ------- 0 2.0 5.0 55 58
h 4.941316 7 9 cbr 1000 ------- 0 2.0 5.0 55 58
r 4.943314 9 7 ack 40 ------- 0 3.0 0.0 1 59
+ 4.943314 7 6 ack 40 ------- 0 3.0 0.0 1 59
- 4.943314 7 6 ack 40 ------- 0 3.0 0.0 1 59
+ 4.951316 7 9 cbr 1000 ------- 0 2.0 5.0 55 58
- 4.951316 7 9 cbr 1000 ------- 0 2.0 5.0 55 58
r 4.953442 7 6 ack 40 ------- 0 3.0 0.0 1 59
h 4.953442 6 8 ack 40 ------- 0 3.0 0.0 1 59
+ 4.963442 6 8 ack 40 ------- 0 3.0 0.0 1 59
- 4.963442 6 8 ack 40 ------- 0 3.0 0.0 1 59