V -t * -v 1.0a5 -a 0
A -t * -n 1 -p 0 -o 0x7fffffff -c 30 -a 1
A -t * -h 1 -m 1073741823 -s 0
n -t * -a 0 -s 0 -S UP -v circle -c black -i black
n -t * -a 1 -s 1 -S UP -v circle -c black -i black
n -t * -a 2 -s 2 -S UP -v circle -c black -i black
n -t * -a 3 -s 3 -S UP -v circle -c black -i black
l -t * -s 0 -d 2 -S UP -r 4000000 -D 0.002 -c black
l -t * -s 2 -d 1 -S UP -r 4000000 -D 0.002 -c black
l -t * -s 2 -d 3 -S UP -r 4000000 -D 0.002 -c black
+ -t 0.5 -s 0 -d 2 -p tcp -e 40 -c 0 -i 0 -a 0 -x {0.0 3.0 0 ------- null}
- -t 0.5 -s 0 -d 2 -p tcp -e 40 -c 0 -i 0 -a 0 -x {0.0 3.0 0 ------- null}
h -t 0.5 -s 0 -d 2 -p tcp -e 40 -c 0 -i 0 -a 0 -x {0.0 3.0 -1 ------- null}
+ -t 0.5 -s 1 -d 2 -p cbr -e 1000 -c 0 -i 1 -a 0 -x {1.0 3.1 0 ------- null}
- -t 0.5 -s 1 -d 2 -p cbr -e 1000 -c 0 -i 1 -a 0 -x {1.0 3.1 0 ------- null}
h -t 0.5 -s 1 -d 2 -p cbr -e 1000 -c 0 -i 1 -a 0 -x {1.0 3.1 -1 ------- null}
r -t 0.50208 -s 0 -d 2 -p tcp -e 40 -c 0 -i 0 -a 0 -x {0.0 3.0 0 ------- null}
+ -t 0.50208 -s 2 -d 3 -p tcp -e 40 -c 0 -i 0 -a 0 -x {0.0 3.0 0 ------- null}
- -t 0.50208 -s 2 -d 3 -p tcp -e 40 -c 0 -i 0 -a 0 -x {0.0 3.0 0 ------- null}
h -t 0.50208 -s 2 -d 3 -p tcp -e 40 -c 0 -i 0 -a 0 -x {0.0 3.0 -1 ------- null}
r -t 0.504 -s 1 -d 2 -p cbr -e 1000 -c 0 -i 1 -a 0 -x {1.0 3.1 0 ------- null}
+ -t 0.504 -s 2 -d 3 -p cbr -e 1000 -c 0 -i 1 -a 0 -x {1.0 3.1 0 ------- null}
- -t 0.504 -s 2 -d 3 -p cbr -e 1000 -c 0 -i 1 -a 0 -x {1.0 3.1 0 ------- null}
h -t 0.504 -s 2 -d 3 -p cbr -e 1000 -c 0 -i 1 -a 0 -x {1.0 3.1 -1 ------- null}
r -t 0.50416 -s 2 -d 3 -p tcp -e 40 -c 0 -i 0 -a 0 -x {0.0 3.0 0 ------- null}
+ -t 0.50416 -s 3 -d 2 -p ack -e 40 -c 0 -i 2 -a 0 -x {3.0 0.0 0 ------- null}
- -t 0.50416 -s 3 -d 2 -p ack -e 40 -c 0 -i 2 -a 0 -x {3.0 0.0 0 ------- null}
h -t 0.50416 -s 3 -d 2 -p ack -e 40 -c 0 -i 2 -a 0 -x {3.0 0.0 -1 ------- null}
r -t 0.50624 -s 3 -d 2 -p ack -e 40 -c 0 -i 2 -a 0 -x {3.0 0.0 0 ------- null}
+ -t 0.50624 -s 2 -d 0 -p ack -e 40 -c 0 -i 2 -a 0 -x {3.0 0.0 0 ------- null}
- -t 0.50624 -s 2 -d 0 -p ack -e 40 -c 0 -i 2 -a 0 -x {3.0 0.0 0 ------- null}
h -t 0.50624 -s 2 -d 0 -p ack -e 40 -c 0 -i 2 -a 0 -x {3.0 0.0 -1 ------- null}
r -t 0.508 -s 2 -d 3 -p cbr -e 1000 -c 0 -i 1 -a 0 -x {1.0 3.1 0 ------- null}
r -t 0.50832 -s 2 -d 0 -p ack -e 40 -c 0 -i 2 -a 0 -x {3.0 0.0 0 ------- null}
+ -t 0.50832 -s 0 -d 2 -p tcp -e 592 -c 0 -i 3 -a 0 -x {0.0 3.0 1 ------- null}
- -t 0.50832 -s 0 -d 2 -p tcp -e 592 -c 0 -i 3 -a 0 -x {0.0 3.0 1 ------- null}
h -t 0.50832 -s 0 -d 2 -p tcp -e 592 -c 0 -i 3 -a 0 -x {0.0 3.0 -1 ------- null}
+ -t 0.50832 -s 0 -d 2 -p tcp -e 592 -c 0 -i 4 -a 0 -x {0.0 3.0 2 ------- null}
- -t 0.509504 -s 0 -d 2 -p tcp -e 592 -c 0 -i 4 -a 0 -x {0.0 3.0 2 ------- null}
h -t 0.509504 -s 0 -d 2 -p tcp -e 592 -c 0 -i 4 -a 0 -x {0.0 3.0 -1 ------- null}
r -t 0.511504 -s 0 -d 2 -p tcp -e 592 -c 0 -i 3 -a 0 -x {0.0 3.0 1 ------- null}
+ -t 0.511504 -s 2 -d 3 -p tcp -e 592 -c 0 -i 3 -a 0 -x {0.0 3.0 1 ------- null}
- -t 0.511504 -s 2 -d 3 -p tcp -e 592 -c 0 -i 3 -a 0 -x {0.0 3.0 1 ------- null}
h -t 0.511504 -s 2 -d 3 -p tcp -e 592 -c 0 -i 3 -a 0 -x {0.0 3.0 -1 ------- null}
r -t 0.512688 -s 0 -d 2 -p tcp -e 592 -c 0 -i 4 -a 0 -x {0.0 3.0 2 ------- null}
+ -t 0.512688 -s 2 -d 3 -p tcp -e 592 -c 0 -i 4 -a 0 -x {0.0 3.0 2 ------- null}
- -t 0.512688 -s 2 -d 3 -p tcp -e 592 -c 0 -i 4 -a 0 -x {0.0 3.0 2 ------- null}
h -t 0.512688 -s 2 -d 3 -p tcp -e 592 -c 0 -i 4 -a 0 -x {0.0 3.0 -1 ------- null}
r -t 0.514688 -s 2 -d 3 -p tcp -e 592 -c 0 -i 3 -a 0 -x {0.0 3.0 1 ------- null}
+ -t 0.514688 -s 3 -d 2 -p ack -e 40 -c 0 -i 5 -a 0 -x {3.0 0.0 1 ------- null}
- -t 0.514688 -s 3 -d 2 -p ack -e 40 -c 0 -i 5 -a 0 -x {3.0 0.0 1 ------- null}
h -t 0.514688 -s 3 -d 2 -p ack -e 40 -c 0 -i 5 -a 0 -x {3.0 0.0 -1 ------- null}
r -t 0.515872 -s 2 -d 3 -p tcp -e 592 -c 0 -i 4 -a 0 -x {0.0 3.0 2 ------- null}
+ -t 0.515872 -s 3 -d 2 -p ack -e 40 -c 0 -i 6 -a 0 -x {3.0 0.0 2 ------- null}
- -t 0.515872 -s 3 -d 2 -p ack -e 40 -c 0 -i 6 -a 0 -x {3.0 0.0 2 ------- null}
h -t 0.515872 -s 3 -d 2 -p ack -e 40 -c 0 -i 6 -a 0 -x {3.0 0.0 -1 ------- null}
r -t 0.516768 -s 3 -d 2 -p ack -e 40 -c 0 -i 5 -a 0 -x {3.0 0.0 1 ------- null}
+ -t 0.516768 -s 2 -d 0 -p ack -e 40 -c 0 -i 5 -a 0 -x {3.0 0.0 1 ------- null}
- -t 0.516768 -s 2 -d 0 -p ack -e 40 -c 0 -i 5 -a 0 -x {3.0 0.0 1 ------- null}
h -t 0.516768 -s 2 -d 0 -p ack -e 40 -c 0 -i 5 -a 0 -x {3.0 0.0 -1 ------- null}
r -t 0.517952 -s 3 -d 2 -p ack -e 40 -c 0 -i 6 -a 0 -x {3.0 0.0 2 ------- null}
+ -t 0.517952 -s 2 -d 0 -p ack -e 40 -c 0 -i 6 -a 0 -x {3.0 0.0 2 ------- null}
- -t 0.517952 -s 2 -d 0 -p ack -e 40 -c 0 -i 6 -a 0 -x {3.0 0.0 2 ------- null}
h -t 0.517952 -s 2 -d 0 -p ack -e 40 -c 0 -i 6 -a 0 -x {3.0 0.0 -1 ------- null}
r -t 0.518848 -s 2 -d 0 -p ack -e 40 -c 0 -i 5 -a 0 -x {3.0 0.0 1 ------- null}
+ -t 0.518848 -s 0 -d 2 -p tcp -e 592 -c 0 -i 7 -a 0 -x {0.0 3.0 3 ------- null}
- -t 0.518848 -s 0 -d 2 -p tcp -e 592 -c 0 -i 7 -a 0 -x {0.0 3.0 3 ------- null}
h -t 0.518848 -s 0 -d 2 -p tcp -e 592 -c 0 -i 7 -a 0 -x {0.0 3.0 -1 ------- null}
+ -t 0.518848 -s 0 -d 2 -p tcp -e 592 -c 0 -i 8 -a 0 -x {0.0 3.0 4 ------- null}
r -t 0.520032 -s 2 -d 0 -p ack -e 40 -c 0 -i 6 -a 0 -x {3.0 0.0 2 ------- null}
+ -t 0.520032 -s 0 -d 2 -p tcp -e 592 -c 0 -i 9 -a 0 -x {0.0 3.0 5 ------- null}
+ -t 0.520032 -s 0 -d 2 -p tcp -e 592 -c 0 -i 10 -a 0 -x {0.0 3.0 6 ------- null}
- -t 0.520032 -s 0 -d 2 -p tcp -e 592 -c 0 -i 8 -a 0 -x {0.0 3.0 4 ------- null}
h -t 0.520032 -s 0 -d 2 -p tcp -e 592 -c 0 -i 8 -a 0 -x {0.0 3.0 -1 ------- null}
- -t 0.521216 -s 0 -d 2 -p tcp -e 592 -c 0 -i 9 -a 0 -x {0.0 3.0 5 ------- null}
h -t 0.521216 -s 0 -d 2 -p tcp -e 592 -c 0 -i 9 -a 0 -x {0.0 3.0 -1 ------- null}
r -t 0.522032 -s 0 -d 2 -p tcp -e 592 -c 0 -i 7 -a 0 -x {0.0 3.0 3 ------- null}
+ -t 0.522032 -s 2 -d 3 -p tcp -e 592 -c 0 -i 7 -a 0 -x {0.0 3.0 3 ------- null}
- -t 0.522032 -s 2 -d 3 -p tcp -e 592 -c 0 -i 7 -a 0 -x {0.0 3.0 3 ------- null}
h -t 0.522032 -s 2 -d 3 -p tcp -e 592 -c 0 -i 7 -a 0 -x {0.0 3.0 -1 ------- null}
- -t 0.5224 -s 0 -d 2 -p tcp -e 592 -c 0 -i 10 -a 0 -x {0.0 3.0 6 ------- null}
h -t 0.5224 -s 0 -d 2 -p tcp -e 592 -c 0 -i 10 -a 0 -x {0.0 3.0 -1 ------- null}
r -t 0.523216 -s 0 -d 2 -p tcp -e 592 -c 0 -i 8 -a 0 -x {0.0 3.0 4 ------- null}
+ -t 0.523216 -s 2 -d 3 -p tcp -e 592 -c 0 -i 8 -a 0 -x {0.0 3.0 4 ------- null}
- -t 0.523216 -s 2 -d 3 -p tcp -e 592 -c 0 -i 8 -a 0 -x {0.0 3.0 4 ------- null}
h -t 0.523216 -s 2 -d 3 -p tcp -e 592 -c 0 -i 8 -a 0 -x {0.0 3.0 -1 ------- null}
r -t 0.5244 -s 0 -d 2 -p tcp -e 592 -c 0 -i 9 -a 0 -x {0.0 3.0 5 ------- null}
+ -t 0.5244 -s 2 -d 3 -p tcp -e 592 -c 0 -i 9 -a 0 -x {0.0 3.0 5 ------- null}
- -t 0.5244 -s 2 -d 3 -p tcp -e 592 -c 0 -i 9 -a 0 -x {0.0 3.0 5 ------- null}
h -t 0.5244 -s 2 -d 3 -p tcp -e 592 -c 0 -i 9 -a 0 -x {0.0 3.0 -1 ------- null}
r -t 0.525216 -s 2 -d 3 -p tcp -e 592 -c 0 -i 7 -a 0 -x {0.0 3.0 3 ------- null}
+ -t 0.525216 -s 3 -d 2 -p ack -e 40 -c 0 -i 11 -a 0 -x {3.0 0.0 3 ------- null}
- -t 0.525216 -s 3 -d 2 -p ack -e 40 -c 0 -i 11 -a 0 -x {3.0 0.0 3 ------- null}
h -t 0.525216 -s 3 -d 2 -p ack -e 40 -c 0 -i 11 -a 0 -x {3.0 0.0 -1 ------- null}
r -t 0.525584 -s 0 -d 2 -p tcp -e 592 -c 0 -i 10 -a 0 -x {0.0 3.0 6 ------- null}
+ -t 0.525584 -s 2 -d 3 -p tcp -e 592 -c 0 -i 10 -a 0 -x {0.0 3.0 6 ------- null}
- -t 0.525584 -s 2 -d 3 -p tcp -e 592 -c 0 -i 10 -a 0 -x {0.0 3.0 6 ------- null}
h -t 0.525584 -s 2 -d 3 -p tcp -e 592 -c 0 -i 10 -a 0 -x {0.0 3.0 -1 ------- null}
r -t 0.5264 -s 2 -d 3 -p tcp -e 592 -c 0 -i 8 -a 0 -x {0.0 3.0 4 ------- null}
+ -t 0.5264 -s 3 -d 2 -p ack -e 40 -c 0 -i 12 -a 0 -x {3.0 0.0 4 ------- null}
- -t 0.5264 -s 3 -d 2 -p ack -e 40 -c 0 -i 12 -a 0 -x {3.0 0.0 4 ------- null}
h -t 0.5264 -s 3 -d 2 -p ack -e 40 -c 0 -i 12 -a 0 -x {3.0 0.0 -1 ------- null}
r -t 0.527296 -s 3 -d 2 -p ack -e 40 -c 0 -i 11 -a 0 -x {3.0 0.0 3 ------- null}
+ -t 0.527296 -s 2 -d 0 -p ack -e 40 -c 0 -i 11 -a 0 -x {3.0 0.0 3 ------- null}
- -t 0.527296 -s 2 -d 0 -p ack -e 40 -c 0 -i 11 -a 0 -x {3.0 0.0 3 ------- null}
h -t 0.527296 -s 2 -d 0 -p ack -e 40 -c 0 -i 11 -a 0 -x {3.0 0.0 -1 ------- null}
r -t 0.527584 -s 2 -d 3 -p tcp -e 592 -c 0 -i 9 -a 0 -x {0.0 3.0 5 ------- null}
+ -t 0.527584 -s 3 -d 2 -p ack -e 40 -c 0 -i 13 -a 0 -x {3.0 0.0 5 ------- null}
- -t 0.527584 -s 3 -d 2 -p ack -e 40 -c 0 -i 13 -a 0 -x {3.0 0.0 5 ------- null}
h -t 0.527584 -s 3 -d 2 -p ack -e 40 -c 0 -i 13 -a 0 -x {3.0 0.0 -1 ------- null}
r -t 0.52848 -s 3 -d 2 -p ack -e 40 -c 0 -i 12 -a 0 -x {3.0 0.0 4 ------- null}
+ -t 0.52848 -s 2 -d 0 -p ack -e 40 -c 0 -i 12 -a 0 -x {3.0 0.0 4 ------- null}
- -t 0.52848 -s 2 -d 0 -p ack -e 40 -c 0 -i 12 -a 0 -x {3.0 0.0 4 ------- null}
h -t 0.52848 -s 2 -d 0 -p ack -e 40 -c 0 -i 12 -a 0 -x {3.0 0.0 -1 ------- null}
r -t 0.528768 -s 2 -d 3 -p tcp -e 592 -c 0 -i 10 -a 0 -x {0.0 3.0 6 ------- null}
+ -t 0.528768 -s 3 -d 2 -p ack -e 40 -c 0 -i 14 -a 0 -x {3.0 0.0 6 ------- null}
- -t 0.528768 -s 3 -d 2 -p ack -e 40 -c 0 -i 14 -a 0 -x {3.0 0.0 6 ------- null}
h -t 0.528768 -s 3 -d 2 -p ack -e 40 -c 0 -i 14 -a 0 -x {3.0 0.0 -1 ------- null}
r -t 0.529376 -s 2 -d 0 -p ack -e 40 -c 0 -i 11 -a 0 -x {3.0 0.0 3 ------- null}
+ -t 0.529376 -s 0 -d 2 -p tcp -e 592 -c 0 -i 15 -a 0 -x {0.0 3.0 7 ------- null}
- -t 0.529376 -s 0 -d 2 -p tcp -e 592 -c 0 -i 15 -a 0 -x {0.0 3.0 7 ------- null}
h -t 0.529376 -s 0 -d 2 -p tcp -e 592 -c 0 -i 15 -a 0 -x {0.0 3.0 -1 ------- null}
+ -t 0.529376 -s 0 -d 2 -p tcp -e 592 -c 0 -i 16 -a 0 -x {0.0 3.0 8 ------- null}
r -t 0.529664 -s 3 -d 2 -p ack -e 40 -c 0 -i 13 -a 0 -x {3.0 0.0 5 ------- null}
+ -t 0.529664 -s 2 -d 0 -p ack -e 40 -c 0 -i 13 -a 0 -x {3.0 0.0 5 ------- null}
- -t 0.529664 -s 2 -d 0 -p ack -e 40 -c 0 -i 13 -a 0 -x {3.0 0.0 5 ------- null}
h -t 0.529664 -s 2 -d 0 -p ack -e 40 -c 0 -i 13 -a 0 -x {3.0 0.0 -1 ------- null}
r -t 0.53056 -s 2 -d 0 -p ack -e 40 -c 0 -i 12 -a 0 -x {3.0 0.0 4 ------- null}
+ -t 0.53056 -s 0 -d 2 -p tcp -e 592 -c 0 -i 17 -a 0 -x {0.0 3.0 9 ------- null}
+ -t 0.53056 -s 0 -d 2 -p tcp -e 592 -c 0 -i 18 -a 0 -x {0.0 3.0 10 ------- null}
- -t 0.53056 -s 0 -d 2 -p tcp -e 592 -c 0 -i 16 -a 0 -x {0.0 3.0 8 ------- null}
h -t 0.53056 -s 0 -d 2 -p tcp -e 592 -c 0 -i 16 -a 0 -x {0.0 3.0 -1 ------- null}
r -t 0.530848 -s 3 -d 2 -p ack -e 40 -c 0 -i 14 -a 0 -x {3.0 0.0 6 ------- null}
+ -t 0.530848 -s 2 -d 0 -p ack -e 40 -c 0 -i 14 -a 0 -x {3.0 0.0 6 ------- null}
- -t 0.530848 -s 2 -d 0 -p ack -e 40 -c 0 -i 14 -a 0 -x {3.0 0.0 6 ------- null}
h -t 0.530848 -s 2 -d 0 -p ack -e 40 -c 0 -i 14 -a 0 -x {3.0 0.0 -1 ------- null}
r -t 0.531744 -s 2 -d 0 -p ack -e 40 -c 0 -i 13 -a 0 -x {3.0 0.0 5 ------- null}
+ -t 0.531744 -s 0 -d 2 -p tcp -e 592 -c 0 -i 19 -a 0 -x {0.0 3.0 11 ------- null}
+ -t 0.531744 -s 0 -d 2 -p tcp -e 592 -c 0 -i 20 -a 0 -x {0.0 3.0 12 ------- null}
- -t 0.531744 -s 0 -d 2 -p tcp -e 592 -c 0 -i 17 -a 0 -x {0.0 3.0 9 ------- null}
h -t 0.531744 -s 0 -d 2 -p tcp -e 592 -c 0 -i 17 -a 0 -x {0.0 3.0 -1 ------- null}
r -t 0.53256 -s 0 -d 2 -p tcp -e 592 -c 0 -i 15 -a 0 -x {0.0 3.0 7 ------- null}
+ -t 0.53256 -s 2 -d 3 -p tcp -e 592 -c 0 -i 15 -a 0 -x {0.0 3.0 7 ------- null}
- -t 0.53256 -s 2 -d 3 -p tcp -e 592 -c 0 -i 15 -a 0 -x {0.0 3.0 7 ------- null}
h -t 0.53256 -s 2 -d 3 -p tcp -e 592 -c 0 -i 15 -a 0 -x {0.0 3.0 -1 ------- null}
r -t 0.532928 -s 2 -d 0 -p ack -e 40 -c 0 -i 14 -a 0 -x {3.0 0.0 6 ------- null}
+ -t 0.532928 -s 0 -d 2 -p tcp -e 592 -c 0 -i 21 -a 0 -x {0.0 3.0 13 ------- null}
+ -t 0.532928 -s 0 -d 2 -p tcp -e 592 -c 0 -i 22 -a 0 -x {0.0 3.0 14 ------- null}
- -t 0.532928 -s 0 -d 2 -p tcp -e 592 -c 0 -i 18 -a 0 -x {0.0 3.0 10 ------- null}
h -t 0.532928 -s 0 -d 2 -p tcp -e 592 -c 0 -i 18 -a 0 -x {0.0 3.0 -1 ------- null}
r -t 0.533744 -s 0 -d 2 -p tcp -e 592 -c 0 -i 16 -a 0 -x {0.0 3.0 8 ------- null}
+ -t 0.533744 -s 2 -d 3 -p tcp -e 592 -c 0 -i 16 -a 0 -x {0.0 3.0 8 ------- null}
- -t 0.533744 -s 2 -d 3 -p tcp -e 592 -c 0 -i 16 -a 0 -x {0.0 3.0 8 ------- null}
h -t 0.533744 -s 2 -d 3 -p tcp -e 592 -c 0 -i 16 -a 0 -x {0.0 3.0 -1 ------- null}
- -t 0.534111999999999 -s 0 -d 2 -p tcp -e 592 -c 0 -i 19 -a 0 -x {0.0 3.0 11 ------- null}
h -t 0.534111999999999 -s 0 -d 2 -p tcp -e 592 -c 0 -i 19 -a 0 -x {0.0 3.0 -1 ------- null}
r -t 0.534928 -s 0 -d 2 -p tcp -e 592 -c 0 -i 17 -a 0 -x {0.0 3.0 9 ------- null}
+ -t 0.534928 -s 2 -d 3 -p tcp -e 592 -c 0 -i 17 -a 0 -x {0.0 3.0 9 ------- null}
- -t 0.534928 -s 2 -d 3 -p tcp -e 592 -c 0 -i 17 -a 0 -x {0.0 3.0 9 ------- null}
h -t 0.534928 -s 2 -d 3 -p tcp -e 592 -c 0 -i 17 -a 0 -x {0.0 3.0 -1 ------- null}
- -t 0.535295999999999 -s 0 -d 2 -p tcp -e 592 -c 0 -i 20 -a 0 -x {0.0 3.0 12 ------- null}
h -t 0.535295999999999 -s 0 -d 2 -p tcp -e 592 -c 0 -i 20 -a 0 -x {0.0 3.0 -1 ------- null}
r -t 0.535744 -s 2 -d 3 -p tcp -e 592 -c 0 -i 15 -a 0 -x {0.0 3.0 7 ------- null}
+ -t 0.535744 -s 3 -d 2 -p ack -e 40 -c 0 -i 23 -a 0 -x {3.0 0.0 7 ------- null}
- -t 0.535744 -s 3 -d 2 -p ack -e 40 -c 0 -i 23 -a 0 -x {3.0 0.0 7 ------- null}
h -t 0.535744 -s 3 -d 2 -p ack -e 40 -c 0 -i 23 -a 0 -x {3.0 0.0 -1 ------- null}
r -t 0.536111999999999 -s 0 -d 2 -p tcp -e 592 -c 0 -i 18 -a 0 -x {0.0 3.0 10 ------- null}
+ -t 0.536111999999999 -s 2 -d 3 -p tcp -e 592 -c 0 -i 18 -a 0 -x {0.0 3.0 10 ------- null}
- -t 0.536111999999999 -s 2 -d 3 -p tcp -e 592 -c 0 -i 18 -a 0 -x {0.0 3.0 10 ------- null}
h -t 0.536111999999999 -s 2 -d 3 -p tcp -e 592 -c 0 -i 18 -a 0 -x {0.0 3.0 -1 ------- null}
- -t 0.536479999999999 -s 0 -d 2 -p tcp -e 592 -c 0 -i 21 -a 0 -x {0.0 3.0 13 ------- null}
h -t 0.536479999999999 -s 0 -d 2 -p tcp -e 592 -c 0 -i 21 -a 0 -x {0.0 3.0 -1 ------- null}
r -t 0.536928 -s 2 -d 3 -p tcp -e 592 -c 0 -i 16 -a 0 -x {0.0 3.0 8 ------- null}
+ -t 0.536928 -s 3 -d 2 -p ack -e 40 -c 0 -i 24 -a 0 -x {3.0 0.0 8 ------- null}
- -t 0.536928 -s 3 -d 2 -p ack -e 40 -c 0 -i 24 -a 0 -x {3.0 0.0 8 ------- null}
h -t 0.536928 -s 3 -d 2 -p ack -e 40 -c 0 -i 24 -a 0 -x {3.0 0.0 -1 ------- null}
r -t 0.537295999999999 -s 0 -d 2 -p tcp -e 592 -c 0 -i 19 -a 0 -x {0.0 3.0 11 ------- null}
+ -t 0.537295999999999 -s 2 -d 3 -p tcp -e 592 -c 0 -i 19 -a 0 -x {0.0 3.0 11 ------- null}
- -t 0.537295999999999 -s 2 -d 3 -p tcp -e 592 -c 0 -i 19 -a 0 -x {0.0 3.0 11 ------- null}
h -t 0.537295999999999 -s 2 -d 3 -p tcp -e 592 -c 0 -i 19 -a 0 -x {0.0 3.0 -1 ------- null}
- -t 0.537663999999999 -s 0 -d 2 -p tcp -e 592 -c 0 -i 22 -a 0 -x {0.0 3.0 14 ------- null}
h -t 0.537663999999999 -s 0 -d 2 -p tcp -e 592 -c 0 -i 22 -a 0 -x {0.0 3.0 -1 ------- null}
r -t 0.537824 -s 3 -d 2 -p ack -e 40 -c 0 -i 23 -a 0 -x {3.0 0.0 7 ------- null}
+ -t 0.537824 -s 2 -d 0 -p ack -e 40 -c 0 -i 23 -a 0 -x {3.0 0.0 7 ------- null}
- -t 0.537824 -s 2 -d 0 -p ack -e 40 -c 0 -i 23 -a 0 -x {3.0 0.0 7 ------- null}
h -t 0.537824 -s 2 -d 0 -p ack -e 40 -c 0 -i 23 -a 0 -x {3.0 0.0 -1 ------- null}
r -t 0.538111999999999 -s 2 -d 3 -p tcp -e 592 -c 0 -i 17 -a 0 -x {0.0 3.0 9 ------- null}
+ -t 0.538111999999999 -s 3 -d 2 -p ack -e 40 -c 0 -i 25 -a 0 -x {3.0 0.0 9 ------- null}
- -t 0.538111999999999 -s 3 -d 2 -p ack -e 40 -c 0 -i 25 -a 0 -x {3.0 0.0 9 ------- null}
h -t 0.538111999999999 -s 3 -d 2 -p ack -e 40 -c 0 -i 25 -a 0 -x {3.0 0.0 -1 ------- null}
r -t 0.538479999999999 -s 0 -d 2 -p tcp -e 592 -c 0 -i 20 -a 0 -x {0.0 3.0 12 ------- null}
+ -t 0.538479999999999 -s 2 -d 3 -p tcp -e 592 -c 0 -i 20 -a 0 -x {0.0 3.0 12 ------- null}
- -t 0.538479999999999 -s 2 -d 3 -p tcp -e 592 -c 0 -i 20 -a 0 -x {0.0 3.0 12 ------- null}
h -t 0.538479999999999 -s 2 -d 3 -p tcp -e 592 -c 0 -i 20 -a 0 -x {0.0 3.0 -1 ------- null}
r -t 0.539007999999999 -s 3 -d 2 -p ack -e 40 -c 0 -i 24 -a 0 -x {3.0 0.0 8 ------- null}
+ -t 0.539007999999999 -s 2 -d 0 -p ack -e 40 -c 0 -i 24 -a 0 -x {3.0 0.0 8 ------- null}
- -t 0.539007999999999 -s 2 -d 0 -p ack -e 40 -c 0 -i 24 -a 0 -x {3.0 0.0 8 ------- null}
h -t 0.539007999999999 -s 2 -d 0 -p ack -e 40 -c 0 -i 24 -a 0 -x {3.0 0.0 -1 ------- null}
r -t 0.539295999999999 -s 2 -d 3 -p tcp -e 592 -c 0 -i 18 -a 0 -x {0.0 3.0 10 ------- null}
+ -t 0.539295999999999 -s 3 -d 2 -p ack -e 40 -c 0 -i 26 -a 0 -x {3.0 0.0 10 ------- null}
- -t 0.539295999999999 -s 3 -d 2 -p ack -e 40 -c 0 -i 26 -a 0 -x {3.0 0.0 10 ------- null}
h -t 0.539295999999999 -s 3 -d 2 -p ack -e 40 -c 0 -i 26 -a 0 -x {3.0 0.0 -1 ------- null}
r -t 0.539663999999999 -s 0 -d 2 -p tcp -e 592 -c 0 -i 21 -a 0 -x {0.0 3.0 13 ------- null}
+ -t 0.539663999999999 -s 2 -d 3 -p tcp -e 592 -c 0 -i 21 -a 0 -x {0.0 3.0 13 ------- null}
- -t 0.539663999999999 -s 2 -d 3 -p tcp -e 592 -c 0 -i 21 -a 0 -x {0.0 3.0 13 ------- null}
h -t 0.539663999999999 -s 2 -d 3 -p tcp -e 592 -c 0 -i 21 -a 0 -x {0.0 3.0 -1 ------- null}
r -t 0.539903999999999 -s 2 -d 0 -p ack -e 40 -c 0 -i 23 -a 0 -x {3.0 0.0 7 ------- null}
+ -t 0.539903999999999 -s 0 -d 2 -p tcp -e 592 -c 0 -i 27 -a 0 -x {0.0 3.0 15 ------- null}
- -t 0.539903999999999 -s 0 -d 2 -p tcp -e 592 -c 0 -i 27 -a 0 -x {0.0 3.0 15 ------- null}
h -t 0.539903999999999 -s 0 -d 2 -p tcp -e 592 -c 0 -i 27 -a 0 -x {0.0 3.0 -1 ------- null}
+ -t 0.539903999999999 -s 0 -d 2 -p tcp -e 592 -c 0 -i 28 -a 0 -x {0.0 3.0 16 ------- null}
r -t 0.540191999999999 -s 3 -d 2 -p ack -e 40 -c 0 -i 25 -a 0 -x {3.0 0.0 9 ------- null}
+ -t 0.540191999999999 -s 2 -d 0 -p ack -e 40 -c 0 -i 25 -a 0 -x {3.0 0.0 9 ------- null}
- -t 0.540191999999999 -s 2 -d 0 -p ack -e 40 -c 0 -i 25 -a 0 -x {3.0 0.0 9 ------- null}
h -t 0.540191999999999 -s 2 -d 0 -p ack -e 40 -c 0 -i 25 -a 0 -x {3.0 0.0 -1 ------- null}
r -t 0.540479999999999 -s 2 -d 3 -p tcp -e 592 -c 0 -i 19 -a 0 -x {0.0 3.0 11 ------- null}
+ -t 0.540479999999999 -s 3 -d 2 -p ack -e 40 -c 0 -i 29 -a 0 -x {3.0 0.0 11 ------- null}
- -t 0.540479999999999 -s 3 -d 2 -p ack -e 40 -c 0 -i 29 -a 0 -x {3.0 0.0 11 ------- null}
h -t 0.540479999999999 -s 3 -d 2 -p ack -e 40 -c 0 -i 29 -a 0 -x {3.0 0.0 -1 ------- null}
r -t 0.540847999999999 -s 0 -d 2 -p tcp -e 592 -c 0 -i 22 -a 0 -x {0.0 3.0 14 ------- null}
+ -t 0.540847999999999 -s 2 -d 3 -p tcp -e 592 -c 0 -i 22 -a 0 -x {0.0 3.0 14 ------- null}
- -t 0.540847999999999 -s 2 -d 3 -p tcp -e 592 -c 0 -i 22 -a 0 -x {0.0 3.0 14 ------- null}
h -t 0.540847999999999 -s 2 -d 3 -p tcp -e 592 -c 0 -i 22 -a 0 -x {0.0 3.0 -1 ------- null}
r -t 0.541087999999999 -s 2 -d 0 -p ack -e 40 -c 0 -i 24 -a 0 -x {3.0 0.0 8 ------- null}
+ -t 0.541087999999999 -s 0 -d 2 -p tcp -e 592 -c 0 -i 30 -a 0 -x {0.0 3.0 17 ------- null}
+ -t 0.541087999999999 -s 0 -d 2 -p tcp -e 592 -c 0 -i 31 -a 0 -x {0.0 3.0 18 ------- null}
- -t 0.541087999999999 -s 0 -d 2 -p tcp -e 592 -c 0 -i 28 -a 0 -x {0.0 3.0 16 ------- null}
h -t 0.541087999999999 -s 0 -d 2 -p tcp -e 592 -c 0 -i 28 -a 0 -x {0.0 3.0 -1 ------- null}
r -t 0.541375999999999 -s 3 -d 2 -p ack -e 40 -c 0 -i 26 -a 0 -x {3.0 0.0 10 ------- null}
+ -t 0.541375999999999 -s 2 -d 0 -p ack -e 40 -c 0 -i 26 -a 0 -x {3.0 0.0 10 ------- null}
- -t 0.541375999999999 -s 2 -d 0 -p ack -e 40 -c 0 -i 26 -a 0 -x {3.0 0.0 10 ------- null}
h -t 0.541375999999999 -s 2 -d 0 -p ack -e 40 -c 0 -i 26 -a 0 -x {3.0 0.0 -1 ------- null}
r -t 0.541663999999999 -s 2 -d 3 -p tcp -e 592 -c 0 -i 20 -a 0 -x {0.0 3.0 12 ------- null}
+ -t 0.541663999999999 -s 3 -d 2 -p ack -e 40 -c 0 -i 32 -a 0 -x {3.0 0.0 12 ------- null}
- -t 0.541663999999999 -s 3 -d 2 -p ack -e 40 -c 0 -i 32 -a 0 -x {3.0 0.0 12 ------- null}
h -t 0.541663999999999 -s 3 -d 2 -p ack -e 40 -c 0 -i 32 -a 0 -x {3.0 0.0 -1 ------- null}
r -t 0.542271999999999 -s 2 -d 0 -p ack -e 40 -c 0 -i 25 -a 0 -x {3.0 0.0 9 ------- null}
+ -t 0.542271999999999 -s 0 -d 2 -p tcp -e 592 -c 0 -i 33 -a 0 -x {0.0 3.0 19 ------- null}
+ -t 0.542271999999999 -s 0 -d 2 -p tcp -e 592 -c 0 -i 34 -a 0 -x {0.0 3.0 20 ------- null}
- -t 0.542271999999999 -s 0 -d 2 -p tcp -e 592 -c 0 -i 30 -a 0 -x {0.0 3.0 17 ------- null}
h -t 0.542271999999999 -s 0 -d 2 -p tcp -e 592 -c 0 -i 30 -a 0 -x {0.0 3.0 -1 ------- null}
r -t 0.542559999999999 -s 3 -d 2 -p ack -e 40 -c 0 -i 29 -a 0 -x {3.0 0.0 11 ------- null}
+ -t 0.542559999999999 -s 2 -d 0 -p ack -e 40 -c 0 -i 29 -a 0 -x {3.0 0.0 11 ------- null}
- -t 0.542559999999999 -s 2 -d 0 -p ack -e 40 -c 0 -i 29 -a 0 -x {3.0 0.0 11 ------- null}
h -t 0.542559999999999 -s 2 -d 0 -p ack -e 40 -c 0 -i 29 -a 0 -x {3.0 0.0 -1 ------- null}
r -t 0.542847999999999 -s 2 -d 3 -p tcp -e 592 -c 0 -i 21 -a 0 -x {0.0 3.0 13 ------- null}
+ -t 0.542847999999999 -s 3 -d 2 -p ack -e 40 -c 0 -i 35 -a 0 -x {3.0 0.0 13 ------- null}
- -t 0.542847999999999 -s 3 -d 2 -p ack -e 40 -c 0 -i 35 -a 0 -x {3.0 0.0 13 ------- null}
h -t 0.542847999999999 -s 3 -d 2 -p ack -e 40 -c 0 -i 35 -a 0 -x {3.0 0.0 -1 ------- null}
r -t 0.543087999999999 -s 0 -d 2 -p tcp -e 592 -c 0 -i 27 -a 0 -x {0.0 3.0 15 ------- null}
+ -t 0.543087999999999 -s 2 -d 3 -p tcp -e 592 -c 0 -i 27 -a 0 -x {0.0 3.0 15 ------- null}
- -t 0.543087999999999 -s 2 -d 3 -p tcp -e 592 -c 0 -i 27 -a 0 -x {0.0 3.0 15 ------- null}
h -t 0.543087999999999 -s 2 -d 3 -p tcp -e 592 -c 0 -i 27 -a 0 -x {0.0 3.0 -1 ------- null}
r -t 0.543455999999999 -s 2 -d 0 -p ack -e 40 -c 0 -i 26 -a 0 -x {3.0 0.0 10 ------- null}
+ -t 0.543455999999999 -s 0 -d 2 -p tcp -e 592 -c 0 -i 36 -a 0 -x {0.0 3.0 21 ------- null}
+ -t 0.543455999999999 -s 0 -d 2 -p tcp -e 592 -c 0 -i 37 -a 0 -x {0.0 3.0 22 ------- null}
- -t 0.543455999999999 -s 0 -d 2 -p tcp -e 592 -c 0 -i 31 -a 0 -x {0.0 3.0 18 ------- null}
h -t 0.543455999999999 -s 0 -d 2 -p tcp -e 592 -c 0 -i 31 -a 0 -x {0.0 3.0 -1 ------- null}
r -t 0.543743999999999 -s 3 -d 2 -p ack -e 40 -c 0 -i 32 -a 0 -x {3.0 0.0 12 ------- null}
+ -t 0.543743999999999 -s 2 -d 0 -p ack -e 40 -c 0 -i 32 -a 0 -x {3.0 0.0 12 ------- null}
- -t 0.543743999999999 -s 2 -d 0 -p ack -e 40 -c 0 -i 32 -a 0 -x {3.0 0.0 12 ------- null}
h -t 0.543743999999999 -s 2 -d 0 -p ack -e 40 -c 0 -i 32 -a 0 -x {3.0 0.0 -1 ------- null}
r -t 0.544031999999999 -s 2 -d 3 -p tcp -e 592 -c 0 -i 22 -a 0 -x {0.0 3.0 14 ------- null}
+ -t 0.544031999999999 -s 3 -d 2 -p ack -e 40 -c 0 -i 38 -a 0 -x {3.0 0.0 14 ------- null}
- -t 0.544031999999999 -s 3 -d 2 -p ack -e 40 -c 0 -i 38 -a 0 -x {3.0 0.0 14 ------- null}
h -t 0.544031999999999 -s 3 -d 2 -p ack -e 40 -c 0 -i 38 -a 0 -x {3.0 0.0 -1 ------- null}
r -t 0.544271999999999 -s 0 -d 2 -p tcp -e 592 -c 0 -i 28 -a 0 -x {0.0 3.0 16 ------- null}
+ -t 0.544271999999999 -s 2 -d 3 -p tcp -e 592 -c 0 -i 28 -a 0 -x {0.0 3.0 16 ------- null}
- -t 0.544271999999999 -s 2 -d 3 -p tcp -e 592 -c 0 -i 28 -a 0 -x {0.0 3.0 16 ------- null}
h -t 0.544271999999999 -s 2 -d 3 -p tcp -e 592 -c 0 -i 28 -a 0 -x {0.0 3.0 -1 ------- null}
r -t 0.544639999999999 -s 2 -d 0 -p ack -e 40 -c 0 -i 29 -a 0 -x {3.0 0.0 11 ------- null}
+ -t 0.544639999999999 -s 0 -d 2 -p tcp -e 592 -c 0 -i 39 -a 0 -x {0.0 3.0 23 ------- null}
+ -t 0.544639999999999 -s 0 -d 2 -p tcp -e 592 -c 0 -i 40 -a 0 -x {0.0 3.0 24 ------- null}
d -t 0.544639999999999 -s 0 -d 2 -p tcp -e 592 -c 0 -i 40 -a 0 -x {0.0 3.0 24 ------- null}
- -t 0.544639999999999 -s 0 -d 2 -p tcp -e 592 -c 0 -i 33 -a 0 -x {0.0 3.0 19 ------- null}
h -t 0.544639999999999 -s 0 -d 2 -p tcp -e 592 -c 0 -i 33 -a 0 -x {0.0 3.0 -1 ------- null}
r -t 0.544927999999999 -s 3 -d 2 -p ack -e 40 -c 0 -i 35 -a 0 -x {3.0 0.0 13 ------- null}
+ -t 0.544927999999999 -s 2 -d 0 -p ack -e 40 -c 0 -i 35 -a 0 -x {3.0 0.0 13 ------- null}
- -t 0.544927999999999 -s 2 -d 0 -p ack -e 40 -c 0 -i 35 -a 0 -x {3.0 0.0 13 ------- null}
h -t 0.544927999999999 -s 2 -d 0 -p ack -e 40 -c 0 -i 35 -a 0 -x {3.0 0.0 -1 ------- null}
r -t 0.545455999999999 -s 0 -d 2 -p tcp -e 592 -c 0 -i 30 -a 0 -x {0.0 3.0 17 ------- null}
+ -t 0.545455999999999 -s 2 -d 3 -p tcp -e 592 -c 0 -i 30 -a 0 -x {0.0 3.0 17 ------- null}
- -t 0.545455999999999 -s 2 -d 3 -p tcp -e 592 -c 0 -i 30 -a 0 -x {0.0 3.0 17 ------- null}
h -t 0.545455999999999 -s 2 -d 3 -p tcp -e 592 -c 0 -i 30 -a 0 -x {0.0 3.0 -1 ------- null}
r -t 0.545823999999999 -s 2 -d 0 -p ack -e 40 -c 0 -i 32 -a 0 -x {3.0 0.0 12 ------- null}
+ -t 0.545823999999999 -s 0 -d 2 -p tcp -e 592 -c 0 -i 41 -a 0 -x {0.0 3.0 25 ------- null}
+ -t 0.545823999999999 -s 0 -d 2 -p tcp -e 592 -c 0 -i 42 -a 0 -x {0.0 3.0 26 ------- null}
d -t 0.545823999999999 -s 0 -d 2 -p tcp -e 592 -c 0 -i 42 -a 0 -x {0.0 3.0 26 ------- null}
- -t 0.545823999999999 -s 0 -d 2 -p tcp -e 592 -c 0 -i 34 -a 0 -x {0.0 3.0 20 ------- null}
h -t 0.545823999999999 -s 0 -d 2 -p tcp -e 592 -c 0 -i 34 -a 0 -x {0.0 3.0 -1 ------- null}
r -t 0.546111999999999 -s 3 -d 2 -p ack -e 40 -c 0 -i 38 -a 0 -x {3.0 0.0 14 ------- null}
+ -t 0.546111999999999 -s 2 -d 0 -p ack -e 40 -c 0 -i 38 -a 0 -x {3.0 0.0 14 ------- null}
- -t 0.546111999999999 -s 2 -d 0 -p ack -e 40 -c 0 -i 38 -a 0 -x {3.0 0.0 14 ------- null}
h -t 0.546111999999999 -s 2 -d 0 -p ack -e 40 -c 0 -i 38 -a 0 -x {3.0 0.0 -1 ------- null}
r -t 0.546271999999999 -s 2 -d 3 -p tcp -e 592 -c 0 -i 27 -a 0 -x {0.0 3.0 15 ------- null}
+ -t 0.546271999999999 -s 3 -d 2 -p ack -e 40 -c 0 -i 43 -a 0 -x {3.0 0.0 15 ------- null}
- -t 0.546271999999999 -s 3 -d 2 -p ack -e 40 -c 0 -i 43 -a 0 -x {3.0 0.0 15 ------- null}
h -t 0.546271999999999 -s 3 -d 2 -p ack -e 40 -c 0 -i 43 -a 0 -x {3.0 0.0 -1 ------- null}
r -t 0.546639999999999 -s 0 -d 2 -p tcp -e 592 -c 0 -i 31 -a 0 -x {0.0 3.0 18 ------- null}
+ -t 0.546639999999999 -s 2 -d 3 -p tcp -e 592 -c 0 -i 31 -a 0 -x {0.0 3.0 18 ------- null}
- -t 0.546639999999999 -s 2 -d 3 -p tcp -e 592 -c 0 -i 31 -a 0 -x {0.0 3.0 18 ------- null}
h -t 0.546639999999999 -s 2 -d 3 -p tcp -e 592 -c 0 -i 31 -a 0 -x {0.0 3.0 -1 ------- null}
r -t 0.547007999999999 -s 2 -d 0 -p ack -e 40 -c 0 -i 35 -a 0 -x {3.0 0.0 13 ------- null}
+ -t 0.547007999999999 -s 0 -d 2 -p tcp -e 592 -c 0 -i 44 -a 0 -x {0.0 3.0 27 ------- null}
+ -t 0.547007999999999 -s 0 -d 2 -p tcp -e 592 -c 0 -i 45 -a 0 -x {0.0 3.0 28 ------- null}
d -t 0.547007999999999 -s 0 -d 2 -p tcp -e 592 -c 0 -i 45 -a 0 -x {0.0 3.0 28 ------- null}
- -t 0.547007999999999 -s 0 -d 2 -p tcp -e 592 -c 0 -i 36 -a 0 -x {0.0 3.0 21 ------- null}
h -t 0.547007999999999 -s 0 -d 2 -p tcp -e 592 -c 0 -i 36 -a 0 -x {0.0 3.0 -1 ------- null}
r -t 0.547455999999999 -s 2 -d 3 -p tcp -e 592 -c 0 -i 28 -a 0 -x {0.0 3.0 16 ------- null}
+ -t 0.547455999999999 -s 3 -d 2 -p ack -e 40 -c 0 -i 46 -a 0 -x {3.0 0.0 16 ------- null}
- -t 0.547455999999999 -s 3 -d 2 -p ack -e 40 -c 0 -i 46 -a 0 -x {3.0 0.0 16 ------- null}
h -t 0.547455999999999 -s 3 -d 2 -p ack -e 40 -c 0 -i 46 -a 0 -x {3.0 0.0 -1 ------- null}
r -t 0.547823999999999 -s 0 -d 2 -p tcp -e 592 -c 0 -i 33 -a 0 -x {0.0 3.0 19 ------- null}
+ -t 0.547823999999999 -s 2 -d 3 -p tcp -e 592 -c 0 -i 33 -a 0 -x {0.0 3.0 19 ------- null}
- -t 0.547823999999999 -s 2 -d 3 -p tcp -e 592 -c 0 -i 33 -a 0 -x {0.0 3.0 19 ------- null}
h -t 0.547823999999999 -s 2 -d 3 -p tcp -e 592 -c 0 -i 33 -a 0 -x {0.0 3.0 -1 ------- null}
r -t 0.548191999999999 -s 2 -d 0 -p ack -e 40 -c 0 -i 38 -a 0 -x {3.0 0.0 14 ------- null}
+ -t 0.548191999999999 -s 0 -d 2 -p tcp -e 592 -c 0 -i 47 -a 0 -x {0.0 3.0 29 ------- null}
+ -t 0.548191999999999 -s 0 -d 2 -p tcp -e 592 -c 0 -i 48 -a 0 -x {0.0 3.0 30 ------- null}
d -t 0.548191999999999 -s 0 -d 2 -p tcp -e 592 -c 0 -i 48 -a 0 -x {0.0 3.0 30 ------- null}
- -t 0.548191999999999 -s 0 -d 2 -p tcp -e 592 -c 0 -i 37 -a 0 -x {0.0 3.0 22 ------- null}
h -t 0.548191999999999 -s 0 -d 2 -p tcp -e 592 -c 0 -i 37 -a 0 -x {0.0 3.0 -1 ------- null}
r -t 0.548351999999999 -s 3 -d 2 -p ack -e 40 -c 0 -i 43 -a 0 -x {3.0 0.0 15 ------- null}
+ -t 0.548351999999999 -s 2 -d 0 -p ack -e 40 -c 0 -i 43 -a 0 -x {3.0 0.0 15 ------- null}
- -t 0.548351999999999 -s 2 -d 0 -p ack -e 40 -c 0 -i 43 -a 0 -x {3.0 0.0 15 ------- null}
h -t 0.548351999999999 -s 2 -d 0 -p ack -e 40 -c 0 -i 43 -a 0 -x {3.0 0.0 -1 ------- null}
r -t 0.548639999999999 -s 2 -d 3 -p tcp -e 592 -c 0 -i 30 -a 0 -x {0.0 3.0 17 ------- null}
+ -t 0.548639999999999 -s 3 -d 2 -p ack -e 40 -c 0 -i 49 -a 0 -x {3.0 0.0 17 ------- null}
- -t 0.548639999999999 -s 3 -d 2 -p ack -e 40 -c 0 -i 49 -a 0 -x {3.0 0.0 17 ------- null}
h -t 0.548639999999999 -s 3 -d 2 -p ack -e 40 -c 0 -i 49 -a 0 -x {3.0 0.0 -1 ------- null}
r -t 0.549007999999999 -s 0 -d 2 -p tcp -e 592 -c 0 -i 34 -a 0 -x {0.0 3.0 20 ------- null}
+ -t 0.549007999999999 -s 2 -d 3 -p tcp -e 592 -c 0 -i 34 -a 0 -x {0.0 3.0 20 ------- null}
- -t 0.549007999999999 -s 2 -d 3 -p tcp -e 592 -c 0 -i 34 -a 0 -x {0.0 3.0 20 ------- null}
h -t 0.549007999999999 -s 2 -d 3 -p tcp -e 592 -c 0 -i 34 -a 0 -x {0.0 3.0 -1 ------- null}
- -t 0.549375999999999 -s 0 -d 2 -p tcp -e 592 -c 0 -i 39 -a 0 -x {0.0 3.0 23 ------- null}
h -t 0.549375999999999 -s 0 -d 2 -p tcp -e 592 -c 0 -i 39 -a 0 -x {0.0 3.0 -1 ------- null}
r -t 0.549535999999999 -s 3 -d 2 -p ack -e 40 -c 0 -i 46 -a 0 -x {3.0 0.0 16 ------- null}
+ -t 0.549535999999999 -s 2 -d 0 -p ack -e 40 -c 0 -i 46 -a 0 -x {3.0 0.0 16 ------- null}
- -t 0.549535999999999 -s 2 -d 0 -p ack -e 40 -c 0 -i 46 -a 0 -x {3.0 0.0 16 ------- null}
h -t 0.549535999999999 -s 2 -d 0 -p ack -e 40 -c 0 -i 46 -a 0 -x {3.0 0.0 -1 ------- null}
r -t 0.549823999999999 -s 2 -d 3 -p tcp -e 592 -c 0 -i 31 -a 0 -x {0.0 3.0 18 ------- null}
+ -t 0.549823999999999 -s 3 -d 2 -p ack -e 40 -c 0 -i 50 -a 0 -x {3.0 0.0 18 ------- null}
- -t 0.549823999999999 -s 3 -d 2 -p ack -e 40 -c 0 -i 50 -a 0 -x {3.0 0.0 18 ------- null}
h -t 0.549823999999999 -s 3 -d 2 -p ack -e 40 -c 0 -i 50 -a 0 -x {3.0 0.0 -1 ------- null}
r -t 0.550191999999999 -s 0 -d 2 -p tcp -e 592 -c 0 -i 36 -a 0 -x {0.0 3.0 21 ------- null}
+ -t 0.550191999999999 -s 2 -d 3 -p tcp -e 592 -c 0 -i 36 -a 0 -x {0.0 3.0 21 ------- null}
- -t 0.550191999999999 -s 2 -d 3 -p tcp -e 592 -c 0 -i 36 -a 0 -x {0.0 3.0 21 ------- null}
h -t 0.550191999999999 -s 2 -d 3 -p tcp -e 592 -c 0 -i 36 -a 0 -x {0.0 3.0 -1 ------- null}
r -t 0.550431999999999 -s 2 -d 0 -p ack -e 40 -c 0 -i 43 -a 0 -x {3.0 0.0 15 ------- null}
+ -t 0.550431999999999 -s 0 -d 2 -p tcp -e 592 -c 0 -i 51 -a 0 -x {0.0 3.0 31 ------- null}
+ -t 0.550431999999999 -s 0 -d 2 -p tcp -e 592 -c 0 -i 52 -a 0 -x {0.0 3.0 32 ------- null}