+ 0.5 0 2 tcp 40 ------- 0 0.0 3.0 0 0
- 0.5 0 2 tcp 40 ------- 0 0.0 3.0 0 0
+ 0.5 1 2 cbr 1000 ------- 0 1.0 3.1 0 1
- 0.5 1 2 cbr 1000 ------- 0 1.0 3.1 0 1
r 0.50208 0 2 tcp 40 ------- 0 0.0 3.0 0 0
+ 0.50208 2 3 tcp 40 ------- 0 0.0 3.0 0 0
- 0.50208 2 3 tcp 40 ------- 0 0.0 3.0 0 0
r 0.504 1 2 cbr 1000 ------- 0 1.0 3.1 0 1
+ 0.504 2 3 cbr 1000 ------- 0 1.0 3.1 0 1
- 0.504 2 3 cbr 1000 ------- 0 1.0 3.1 0 1
r 0.50416 2 3 tcp 40 ------- 0 0.0 3.0 0 0
+ 0.50416 3 2 ack 40 ------- 0 3.0 0.0 0 2
- 0.50416 3 2 ack 40 ------- 0 3.0 0.0 0 2
r 0.50624 3 2 ack 40 ------- 0 3.0 0.0 0 2
+ 0.50624 2 0 ack 40 ------- 0 3.0 0.0 0 2
- 0.50624 2 0 ack 40 ------- 0 3.0 0.0 0 2
r 0.508 2 3 cbr 1000 ------- 0 1.0 3.1 0 1
r 0.50832 2 0 ack 40 ------- 0 3.0 0.0 0 2
+ 0.50832 0 2 tcp 592 ------- 0 0.0 3.0 1 3
- 0.50832 0 2 tcp 592 ------- 0 0.0 3.0 1 3
+ 0.50832 0 2 tcp 592 ------- 0 0.0 3.0 2 4
- 0.509504 0 2 tcp 592 ------- 0 0.0 3.0 2 4
r 0.511504 0 2 tcp 592 ------- 0 0.0 3.0 1 3
+ 0.511504 2 3 tcp 592 ------- 0 0.0 3.0 1 3
- 0.511504 2 3 tcp 592 ------- 0 0.0 3.0 1 3
r 0.512688 0 2 tcp 592 ------- 0 0.0 3.0 2 4
+ 0.512688 2 3 tcp 592 ------- 0 0.0 3.0 2 4
- 0.512688 2 3 tcp 592 ------- 0 0.0 3.0 2 4
r 0.514688 2 3 tcp 592 ------- 0 0.0 3.0 1 3
+ 0.514688 3 2 ack 40 ------- 0 3.0 0.0 1 5
- 0.514688 3 2 ack 40 ------- 0 3.0 0.0 1 5
r 0.515872 2 3 tcp 592 ------- 0 0.0 3.0 2 4
+ 0.515872 3 2 ack 40 ------- 0 3.0 0.0 2 6
- 0.515872 3 2 ack 40 ------- 0 3.0 0.0 2 6
r 0.516768 3 2 ack 40 ------- 0 3.0 0.0 1 5
+ 0.516768 2 0 ack 40 ------- 0 3.0 0.0 1 5
- 0.516768 2 0 ack 40 ------- 0 3.0 0.0 1 5
r 0.517952 3 2 ack 40 ------- 0 3.0 0.0 2 6
+ 0.517952 2 0 ack 40 ------- 0 3.0 0.0 2 6
- 0.517952 2 0 ack 40 ------- 0 3.0 0.0 2 6
r 0.518848 2 0 ack 40 ------- 0 3.0 0.0 1 5
+ 0.518848 0 2 tcp 592 ------- 0 0.0 3.0 3 7
- 0.518848 0 2 tcp 592 ------- 0 0.0 3.0 3 7
+ 0.518848 0 2 tcp 592 ------- 0 0.0 3.0 4 8
r 0.520032 2 0 ack 40 ------- 0 3.0 0.0 2 6
+ 0.520032 0 2 tcp 592 ------- 0 0.0 3.0 5 9
+ 0.520032 0 2 tcp 592 ------- 0 0.0 3.0 6 10
- 0.520032 0 2 tcp 592 ------- 0 0.0 3.0 4 8
- 0.521216 0 2 tcp 592 ------- 0 0.0 3.0 5 9
r 0.522032 0 2 tcp 592 ------- 0 0.0 3.0 3 7
+ 0.522032 2 3 tcp 592 ------- 0 0.0 3.0 3 7
- 0.522032 2 3 tcp 592 ------- 0 0.0 3.0 3 7
- 0.5224 0 2 tcp 592 ------- 0 0.0 3.0 6 10
r 0.523216 0 2 tcp 592 ------- 0 0.0 3.0 4 8
+ 0.523216 2 3 tcp 592 ------- 0 0.0 3.0 4 8
- 0.523216 2 3 tcp 592 ------- 0 0.0 3.0 4 8
r 0.5244 0 2 tcp 592 ------- 0 0.0 3.0 5 9
+ 0.5244 2 3 tcp 592 ------- 0 0.0 3.0 5 9
- 0.5244 2 3 tcp 592 ------- 0 0.0 3.0 5 9
r 0.525216 2 3 tcp 592 ------- 0 0.0 3.0 3 7
+ 0.525216 3 2 ack 40 ------- 0 3.0 0.0 3 11
- 0.525216 3 2 ack 40 ------- 0 3.0 0.0 3 11
r 0.525584 0 2 tcp 592 ------- 0 0.0 3.0 6 10
+ 0.525584 2 3 tcp 592 ------- 0 0.0 3.0 6 10
- 0.525584 2 3 tcp 592 ------- 0 0.0 3.0 6 10
r 0.5264 2 3 tcp 592 ------- 0 0.0 3.0 4 8
+ 0.5264 3 2 ack 40 ------- 0 3.0 0.0 4 12
- 0.5264 3 2 ack 40 ------- 0 3.0 0.0 4 12
r 0.527296 3 2 ack 40 ------- 0 3.0 0.0 3 11
+ 0.527296 2 0 ack 40 ------- 0 3.0 0.0 3 11
- 0.527296 2 0 ack 40 ------- 0 3.0 0.0 3 11
r 0.527584 2 3 tcp 592 ------- 0 0.0 3.0 5 9
+ 0.527584 3 2 ack 40 ------- 0 3.0 0.0 5 13
- 0.527584 3 2 ack 40 ------- 0 3.0 0.0 5 13
r 0.52848 3 2 ack 40 ------- 0 3.0 0.0 4 12
+ 0.52848 2 0 ack 40 ------- 0 3.0 0.0 4 12
- 0.52848 2 0 ack 40 ------- 0 3.0 0.0 4 12
r 0.528768 2 3 tcp 592 ------- 0 0.0 3.0 6 10
+ 0.528768 3 2 ack 40 ------- 0 3.0 0.0 6 14
- 0.528768 3 2 ack 40 ------- 0 3.0 0.0 6 14
r 0.529376 2 0 ack 40 ------- 0 3.0 0.0 3 11
+ 0.529376 0 2 tcp 592 ------- 0 0.0 3.0 7 15
- 0.529376 0 2 tcp 592 ------- 0 0.0 3.0 7 15
+ 0.529376 0 2 tcp 592 ------- 0 0.0 3.0 8 16
r 0.529664 3 2 ack 40 ------- 0 3.0 0.0 5 13
+ 0.529664 2 0 ack 40 ------- 0 3.0 0.0 5 13
- 0.529664 2 0 ack 40 ------- 0 3.0 0.0 5 13
r 0.53056 2 0 ack 40 ------- 0 3.0 0.0 4 12
+ 0.53056 0 2 tcp 592 ------- 0 0.0 3.0 9 17
+ 0.53056 0 2 tcp 592 ------- 0 0.0 3.0 10 18
- 0.53056 0 2 tcp 592 ------- 0 0.0 3.0 8 16
r 0.530848 3 2 ack 40 ------- 0 3.0 0.0 6 14
+ 0.530848 2 0 ack 40 ------- 0 3.0 0.0 6 14
- 0.530848 2 0 ack 40 ------- 0 3.0 0.0 6 14
r 0.531744 2 0 ack 40 ------- 0 3.0 0.0 5 13
+ 0.531744 0 2 tcp 592 ------- 0 0.0 3.0 11 19
+ 0.531744 0 2 tcp 592 ------- 0 0.0 3.0 12 20
- 0.531744 0 2 tcp 592 ------- 0 0.0 3.0 9 17
r 0.53256 0 2 tcp 592 ------- 0 0.0 3.0 7 15
+ 0.53256 2 3 tcp 592 ------- 0 0.0 3.0 7 15
- 0.53256 2 3 tcp 592 ------- 0 0.0 3.0 7 15
r 0.532928 2 0 ack 40 ------- 0 3.0 0.0 6 14
+ 0.532928 0 2 tcp 592 ------- 0 0.0 3.0 13 21
+ 0.532928 0 2 tcp 592 ------- 0 0.0 3.0 14 22
- 0.532928 0 2 tcp 592 ------- 0 0.0 3.0 10 18
r 0.533744 0 2 tcp 592 ------- 0 0.0 3.0 8 16
+ 0.533744 2 3 tcp 592 ------- 0 0.0 3.0 8 16
- 0.533744 2 3 tcp 592 ------- 0 0.0 3.0 8 16
- 0.534112 0 2 tcp 592 ------- 0 0.0 3.0 11 19
r 0.534928 0 2 tcp 592 ------- 0 0.0 3.0 9 17
+ 0.534928 2 3 tcp 592 ------- 0 0.0 3.0 9 17
- 0.534928 2 3 tcp 592 ------- 0 0.0 3.0 9 17
- 0.535296 0 2 tcp 592 ------- 0 0.0 3.0 12 20
r 0.535744 2 3 tcp 592 ------- 0 0.0 3.0 7 15
+ 0.535744 3 2 ack 40 ------- 0 3.0 0.0 7 23
- 0.535744 3 2 ack 40 ------- 0 3.0 0.0 7 23
r 0.536112 0 2 tcp 592 ------- 0 0.0 3.0 10 18
+ 0.536112 2 3 tcp 592 ------- 0 0.0 3.0 10 18
- 0.536112 2 3 tcp 592 ------- 0 0.0 3.0 10 18
- 0.53648 0 2 tcp 592 ------- 0 0.0 3.0 13 21
r 0.536928 2 3 tcp 592 ------- 0 0.0 3.0 8 16
+ 0.536928 3 2 ack 40 ------- 0 3.0 0.0 8 24
- 0.536928 3 2 ack 40 ------- 0 3.0 0.0 8 24
r 0.537296 0 2 tcp 592 ------- 0 0.0 3.0 11 19
+ 0.537296 2 3 tcp 592 ------- 0 0.0 3.0 11 19
- 0.537296 2 3 tcp 592 ------- 0 0.0 3.0 11 19
- 0.537664 0 2 tcp 592 ------- 0 0.0 3.0 14 22
r 0.537824 3 2 ack 40 ------- 0 3.0 0.0 7 23
+ 0.537824 2 0 ack 40 ------- 0 3.0 0.0 7 23
- 0.537824 2 0 ack 40 ------- 0 3.0 0.0 7 23
r 0.538112 2 3 tcp 592 ------- 0 0.0 3.0 9 17
+ 0.538112 3 2 ack 40 ------- 0 3.0 0.0 9 25
- 0.538112 3 2 ack 40 ------- 0 3.0 0.0 9 25
r 0.53848 0 2 tcp 592 ------- 0 0.0 3.0 12 20
+ 0.53848 2 3 tcp 592 ------- 0 0.0 3.0 12 20
- 0.53848 2 3 tcp 592 ------- 0 0.0 3.0 12 20
r 0.539008 3 2 ack 40 ------- 0 3.0 0.0 8 24
+ 0.539008 2 0 ack 40 ------- 0 3.0 0.0 8 24
- 0.539008 2 0 ack 40 ------- 0 3.0 0.0 8 24
r 0.539296 2 3 tcp 592 ------- 0 0.0 3.0 10 18
+ 0.539296 3 2 ack 40 ------- 0 3.0 0.0 10 26
- 0.539296 3 2 ack 40 ------- 0 3.0 0.0 10 26
r 0.539664 0 2 tcp 592 ------- 0 0.0 3.0 13 21
+ 0.539664 2 3 tcp 592 ------- 0 0.0 3.0 13 21
- 0.539664 2 3 tcp 592 ------- 0 0.0 3.0 13 21
r 0.539904 2 0 ack 40 ------- 0 3.0 0.0 7 23
+ 0.539904 0 2 tcp 592 ------- 0 0.0 3.0 15 27
- 0.539904 0 2 tcp 592 ------- 0 0.0 3.0 15 27
+ 0.539904 0 2 tcp 592 ------- 0 0.0 3.0 16 28
r 0.540192 3 2 ack 40 ------- 0 3.0 0.0 9 25
+ 0.540192 2 0 ack 40 ------- 0 3.0 0.0 9 25
- 0.540192 2 0 ack 40 ------- 0 3.0 0.0 9 25
r 0.54048 2 3 tcp 592 ------- 0 0.0 3.0 11 19
+ 0.54048 3 2 ack 40 ------- 0 3.0 0.0 11 29
- 0.54048 3 2 ack 40 ------- 0 3.0 0.0 11 29
r 0.540848 0 2 tcp 592 ------- 0 0.0 3.0 14 22
+ 0.540848 2 3 tcp 592 ------- 0 0.0 3.0 14 22
- 0.540848 2 3 tcp 592 ------- 0 0.0 3.0 14 22
r 0.541088 2 0 ack 40 ------- 0 3.0 0.0 8 24
+ 0.541088 0 2 tcp 592 ------- 0 0.0 3.0 17 30
+ 0.541088 0 2 tcp 592 ------- 0 0.0 3.0 18 31
- 0.541088 0 2 tcp 592 ------- 0 0.0 3.0 16 28
r 0.541376 3 2 ack 40 ------- 0 3.0 0.0 10 26
+ 0.541376 2 0 ack 40 ------- 0 3.0 0.0 10 26
- 0.541376 2 0 ack 40 ------- 0 3.0 0.0 10 26
r 0.541664 2 3 tcp 592 ------- 0 0.0 3.0 12 20
+ 0.541664 3 2 ack 40 ------- 0 3.0 0.0 12 32
- 0.541664 3 2 ack 40 ------- 0 3.0 0.0 12 32
r 0.542272 2 0 ack 40 ------- 0 3.0 0.0 9 25
+ 0.542272 0 2 tcp 592 ------- 0 0.0 3.0 19 33
+ 0.542272 0 2 tcp 592 ------- 0 0.0 3.0 20 34
- 0.542272 0 2 tcp 592 ------- 0 0.0 3.0 17 30
r 0.54256 3 2 ack 40 ------- 0 3.0 0.0 11 29
+ 0.54256 2 0 ack 40 ------- 0 3.0 0.0 11 29
- 0.54256 2 0 ack 40 ------- 0 3.0 0.0 11 29
r 0.542848 2 3 tcp 592 ------- 0 0.0 3.0 13 21
+ 0.542848 3 2 ack 40 ------- 0 3.0 0.0 13 35
- 0.542848 3 2 ack 40 ------- 0 3.0 0.0 13 35
r 0.543088 0 2 tcp 592 ------- 0 0.0 3.0 15 27
+ 0.543088 2 3 tcp 592 ------- 0 0.0 3.0 15 27
- 0.543088 2 3 tcp 592 ------- 0 0.0 3.0 15 27
r 0.543456 2 0 ack 40 ------- 0 3.0 0.0 10 26
+ 0.543456 0 2 tcp 592 ------- 0 0.0 3.0 21 36
+ 0.543456 0 2 tcp 592 ------- 0 0.0 3.0 22 37
- 0.543456 0 2 tcp 592 ------- 0 0.0 3.0 18 31
r 0.543744 3 2 ack 40 ------- 0 3.0 0.0 12 32
+ 0.543744 2 0 ack 40 ------- 0 3.0 0.0 12 32
- 0.543744 2 0 ack 40 ------- 0 3.0 0.0 12 32
r 0.544032 2 3 tcp 592 ------- 0 0.0 3.0 14 22
+ 0.544032 3 2 ack 40 ------- 0 3.0 0.0 14 38
- 0.544032 3 2 ack 40 ------- 0 3.0 0.0 14 38
r 0.544272 0 2 tcp 592 ------- 0 0.0 3.0 16 28
+ 0.544272 2 3 tcp 592 ------- 0 0.0 3.0 16 28
- 0.544272 2 3 tcp 592 ------- 0 0.0 3.0 16 28
r 0.54464 2 0 ack 40 ------- 0 3.0 0.0 11 29
+ 0.54464 0 2 tcp 592 ------- 0 0.0 3.0 23 39
+ 0.54464 0 2 tcp 592 ------- 0 0.0 3.0 24 40
d 0.54464 0 2 tcp 592 ------- 0 0.0 3.0 24 40
- 0.54464 0 2 tcp 592 ------- 0 0.0 3.0 19 33
r 0.544928 3 2 ack 40 ------- 0 3.0 0.0 13 35
+ 0.544928 2 0 ack 40 ------- 0 3.0 0.0 13 35
- 0.544928 2 0 ack 40 ------- 0 3.0 0.0 13 35
r 0.545456 0 2 tcp 592 ------- 0 0.0 3.0 17 30
+ 0.545456 2 3 tcp 592 ------- 0 0.0 3.0 17 30
- 0.545456 2 3 tcp 592 ------- 0 0.0 3.0 17 30
r 0.545824 2 0 ack 40 ------- 0 3.0 0.0 12 32
+ 0.545824 0 2 tcp 592 ------- 0 0.0 3.0 25 41
+ 0.545824 0 2 tcp 592 ------- 0 0.0 3.0 26 42
d 0.545824 0 2 tcp 592 ------- 0 0.0 3.0 26 42
- 0.545824 0 2 tcp 592 ------- 0 0.0 3.0 20 34
r 0.546112 3 2 ack 40 ------- 0 3.0 0.0 14 38
+ 0.546112 2 0 ack 40 ------- 0 3.0 0.0 14 38
- 0.546112 2 0 ack 40 ------- 0 3.0 0.0 14 38
r 0.546272 2 3 tcp 592 ------- 0 0.0 3.0 15 27
+ 0.546272 3 2 ack 40 ------- 0 3.0 0.0 15 43
- 0.546272 3 2 ack 40 ------- 0 3.0 0.0 15 43
r 0.54664 0 2 tcp 592 ------- 0 0.0 3.0 18 31
+ 0.54664 2 3 tcp 592 ------- 0 0.0 3.0 18 31
- 0.54664 2 3 tcp 592 ------- 0 0.0 3.0 18 31
r 0.547008 2 0 ack 40 ------- 0 3.0 0.0 13 35
+ 0.547008 0 2 tcp 592 ------- 0 0.0 3.0 27 44
+ 0.547008 0 2 tcp 592 ------- 0 0.0 3.0 28 45
d 0.547008 0 2 tcp 592 ------- 0 0.0 3.0 28 45
- 0.547008 0 2 tcp 592 ------- 0 0.0 3.0 21 36
r 0.547456 2 3 tcp 592 ------- 0 0.0 3.0 16 28
+ 0.547456 3 2 ack 40 ------- 0 3.0 0.0 16 46
- 0.547456 3 2 ack 40 ------- 0 3.0 0.0 16 46
r 0.547824 0 2 tcp 592 ------- 0 0.0 3.0 19 33
+ 0.547824 2 3 tcp 592 ------- 0 0.0 3.0 19 33
- 0.547824 2 3 tcp 592 ------- 0 0.0 3.0 19 33
r 0.548192 2 0 ack 40 ------- 0 3.0 0.0 14 38
+ 0.548192 0 2 tcp 592 ------- 0 0.0 3.0 29 47
+ 0.548192 0 2 tcp 592 ------- 0 0.0 3.0 30 48
d 0.548192 0 2 tcp 592 ------- 0 0.0 3.0 30 48
- 0.548192 0 2 tcp 592 ------- 0 0.0 3.0 22 37
r 0.548352 3 2 ack 40 ------- 0 3.0 0.0 15 43
+ 0.548352 2 0 ack 40 ------- 0 3.0 0.0 15 43
- 0.548352 2 0 ack 40 ------- 0 3.0 0.0 15 43
r 0.54864 2 3 tcp 592 ------- 0 0.0 3.0 17 30
+ 0.54864 3 2 ack 40 ------- 0 3.0 0.0 17 49
- 0.54864 3 2 ack 40 ------- 0 3.0 0.0 17 49
r 0.549008 0 2 tcp 592 ------- 0 0.0 3.0 20 34
+ 0.549008 2 3 tcp 592 ------- 0 0.0 3.0 20 34
- 0.549008 2 3 tcp 592 ------- 0 0.0 3.0 20 34
- 0.549376 0 2 tcp 592 ------- 0 0.0 3.0 23 39
r 0.549536 3 2 ack 40 ------- 0 3.0 0.0 16 46
+ 0.549536 2 0 ack 40 ------- 0 3.0 0.0 16 46
- 0.549536 2 0 ack 40 ------- 0 3.0 0.0 16 46
r 0.549824 2 3 tcp 592 ------- 0 0.0 3.0 18 31
+ 0.549824 3 2 ack 40 ------- 0 3.0 0.0 18 50
- 0.549824 3 2 ack 40 ------- 0 3.0 0.0 18 50
r 0.550192 0 2 tcp 592 ------- 0 0.0 3.0 21 36
+ 0.550192 2 3 tcp 592 ------- 0 0.0 3.0 21 36
- 0.550192 2 3 tcp 592 ------- 0 0.0 3.0 21 36
r 0.550432 2 0 ack 40 ------- 0 3.0 0.0 15 43
+ 0.550432 0 2 tcp 592 ------- 0 0.0 3.0 31 51
+ 0.550432 0 2 tcp 592 ------- 0 0.0 3.0 32 52
- 0.55056 0 2 tcp 592 ------- 0 0.0 3.0 25 41
r 0.55072 3 2 ack 40 ------- 0 3.0 0.0 17 49
+ 0.55072 2 0 ack 40 ------- 0 3.0 0.0 17 49
- 0.55072 2 0 ack 40 ------- 0 3.0 0.0 17 49
r 0.551008 2 3 tcp 592 ------- 0 0.0 3.0 19 33
+ 0.551008 3 2 ack 40 ------- 0 3.0 0.0 19 53
- 0.551008 3 2 ack 40 ------- 0 3.0 0.0 19 53
r 0.551376 0 2 tcp 592 ------- 0 0.0 3.0 22 37
+ 0.551376 2 3 tcp 592 ------- 0 0.0 3.0 22 37
- 0.551376 2 3 tcp 592 ------- 0 0.0 3.0 22 37
r 0.551616 2 0 ack 40 ------- 0 3.0 0.0 16 46
+ 0.551616 0 2 tcp 592 ------- 0 0.0 3.0 33 54
+ 0.551616 0 2 tcp 592 ------- 0 0.0 3.0 34 55
d 0.551616 0 2 tcp 592 ------- 0 0.0 3.0 34 55
- 0.551744 0 2 tcp 592 ------- 0 0.0 3.0 27 44
r 0.551904 3 2 ack 40 ------- 0 3.0 0.0 18 50
+ 0.551904 2 0 ack 40 ------- 0 3.0 0.0 18 50
- 0.551904 2 0 ack 40 ------- 0 3.0 0.0 18 50
r 0.552192 2 3 tcp 592 ------- 0 0.0 3.0 20 34
+ 0.552192 3 2 ack 40 ------- 0 3.0 0.0 20 56
- 0.552192 3 2 ack 40 ------- 0 3.0 0.0 20 56
r 0.55256 0 2 tcp 592 ------- 0 0.0 3.0 23 39
+ 0.55256 2 3 tcp 592 ------- 0 0.0 3.0 23 39
- 0.55256 2 3 tcp 592 ------- 0 0.0 3.0 23 39
r 0.5528 2 0 ack 40 ------- 0 3.0 0.0 17 49
+ 0.5528 0 2 tcp 592 ------- 0 0.0 3.0 35 57
+ 0.5528 0 2 tcp 592 ------- 0 0.0 3.0 36 58
d 0.5528 0 2 tcp 592 ------- 0 0.0 3.0 36 58
- 0.552928 0 2 tcp 592 ------- 0 0.0 3.0 29 47
r 0.553088 3 2 ack 40 ------- 0 3.0 0.0 19 53
+ 0.553088 2 0 ack 40 ------- 0 3.0 0.0 19 53
- 0.553088 2 0 ack 40 ------- 0 3.0 0.0 19 53
r 0.553376 2 3 tcp 592 ------- 0 0.0 3.0 21 36
+ 0.553376 3 2 ack 40 ------- 0 3.0 0.0 21 59
- 0.553376 3 2 ack 40 ------- 0 3.0 0.0 21 59
r 0.553744 0 2 tcp 592 ------- 0 0.0 3.0 25 41
+ 0.553744 2 3 tcp 592 ------- 0 0.0 3.0 25 41
- 0.553744 2 3 tcp 592 ------- 0 0.0 3.0 25 41
r 0.553984 2 0 ack 40 ------- 0 3.0 0.0 18 50
+ 0.553984 0 2 tcp 592 ------- 0 0.0 3.0 37 60
+ 0.553984 0 2 tcp 592 ------- 0 0.0 3.0 38 61
d 0.553984 0 2 tcp 592 ------- 0 0.0 3.0 38 61
- 0.554112 0 2 tcp 592 ------- 0 0.0 3.0 31 51
r 0.554272 3 2 ack 40 ------- 0 3.0 0.0 20 56
+ 0.554272 2 0 ack 40 ------- 0 3.0 0.0 20 56
- 0.554272 2 0 ack 40 ------- 0 3.0 0.0 20 56
r 0.55456 2 3 tcp 592 ------- 0 0.0 3.0 22 37
+ 0.55456 3 2 ack 40 ------- 0 3.0 0.0 22 62
- 0.55456 3 2 ack 40 ------- 0 3.0 0.0 22 62
r 0.554928 0 2 tcp 592 ------- 0 0.0 3.0 27 44
+ 0.554928 2 3 tcp 592 ------- 0 0.0 3.0 27 44
- 0.554928 2 3 tcp 592 ------- 0 0.0 3.0 27 44
r 0.555168 2 0 ack 40 ------- 0 3.0 0.0 19 53
+ 0.555168 0 2 tcp 592 ------- 0 0.0 3.0 39 63
- 0.555296 0 2 tcp 592 ------- 0 0.0 3.0 32 52
r 0.555456 3 2 ack 40 ------- 0 3.0 0.0 21 59
+ 0.555456 2 0 ack 40 ------- 0 3.0 0.0 21 59
- 0.555456 2 0 ack 40 ------- 0 3.0 0.0 21 59
r 0.555744 2 3 tcp 592 ------- 0 0.0 3.0 23 39
+ 0.555744 3 2 ack 40 ------- 0 3.0 0.0 23 64
- 0.555744 3 2 ack 40 ------- 0 3.0 0.0 23 64
r 0.556112 0 2 tcp 592 ------- 0 0.0 3.0 29 47
+ 0.556112 2 3 tcp 592 ------- 0 0.0 3.0 29 47
- 0.556112 2 3 tcp 592 ------- 0 0.0 3.0 29 47
r 0.556352 2 0 ack 40 ------- 0 3.0 0.0 20 56
+ 0.556352 0 2 tcp 592 ------- 0 0.0 3.0 40 65
- 0.55648 0 2 tcp 592 ------- 0 0.0 3.0 33 54
r 0.55664 3 2 ack 40 ------- 0 3.0 0.0 22 62
+ 0.55664 2 0 ack 40 ------- 0 3.0 0.0 22 62
- 0.55664 2 0 ack 40 ------- 0 3.0 0.0 22 62
r 0.556928 2 3 tcp 592 ------- 0 0.0 3.0 25 41
+ 0.556928 3 2 ack 40 ------- 0 3.0 0.0 23 66
- 0.556928 3 2 ack 40 ------- 0 3.0 0.0 23 66
r 0.557296 0 2 tcp 592 ------- 0 0.0 3.0 31 51
+ 0.557296 2 3 tcp 592 ------- 0 0.0 3.0 31 51
- 0.557296 2 3 tcp 592 ------- 0 0.0 3.0 31 51
r 0.557536 2 0 ack 40 ------- 0 3.0 0.0 21 59
+ 0.557536 0 2 tcp 592 ------- 0 0.0 3.0 41 67
- 0.557664 0 2 tcp 592 ------- 0 0.0 3.0 35 57
r 0.557824 3 2 ack 40 ------- 0 3.0 0.0 23 64
+ 0.557824 2 0 ack 40 ------- 0 3.0 0.0 23 64
- 0.557824 2 0 ack 40 ------- 0 3.0 0.0 23 64
r 0.558112 2 3 tcp 592 ------- 0 0.0 3.0 27 44
+ 0.558112 3 2 ack 40 ------- 0 3.0 0.0 23 68
- 0.558112 3 2 ack 40 ------- 0 3.0 0.0 23 68
r 0.55848 0 2 tcp 592 ------- 0 0.0 3.0 32 52
+ 0.55848 2 3 tcp 592 ------- 0 0.0 3.0 32 52
- 0.55848 2 3 tcp 592 ------- 0 0.0 3.0 32 52
r 0.55872 2 0 ack 40 ------- 0 3.0 0.0 22 62
+ 0.55872 0 2 tcp 592 ------- 0 0.0 3.0 42 69
- 0.558848 0 2 tcp 592 ------- 0 0.0 3.0 37 60
r 0.559008 3 2 ack 40 ------- 0 3.0 0.0 23 66
+ 0.559008 2 0 ack 40 ------- 0 3.0 0.0 23 66
- 0.559008 2 0 ack 40 ------- 0 3.0 0.0 23 66
r 0.559296 2 3 tcp 592 ------- 0 0.0 3.0 29 47
+ 0.559296 3 2 ack 40 ------- 0 3.0 0.0 23 70
- 0.559296 3 2 ack 40 ------- 0 3.0 0.0 23 70
r 0.559664 0 2 tcp 592 ------- 0 0.0 3.0 33 54
+ 0.559664 2 3 tcp 592 ------- 0 0.0 3.0 33 54
- 0.559664 2 3 tcp 592 ------- 0 0.0 3.0 33 54
r 0.559904 2 0 ack 40 ------- 0 3.0 0.0 23 64
+ 0.559904 0 2 tcp 592 ------- 0 0.0 3.0 43 71
- 0.560032 0 2 tcp 592 ------- 0 0.0 3.0 39 63
r 0.560192 3 2 ack 40 ------- 0 3.0 0.0 23 68
+ 0.560192 2 0 ack 40 ------- 0 3.0 0.0 23 68
- 0.560192 2 0 ack 40 ------- 0 3.0 0.0 23 68
r 0.56048 2 3 tcp 592 ------- 0 0.0 3.0 31 51
+ 0.56048 3 2 ack 40 ------- 0 3.0 0.0 23 72
- 0.56048 3 2 ack 40 ------- 0 3.0 0.0 23 72
r 0.560848 0 2 tcp 592 ------- 0 0.0 3.0 35 57
+ 0.560848 2 3 tcp 592 ------- 0 0.0 3.0 35 57
- 0.560848 2 3 tcp 592 ------- 0 0.0 3.0 35 57
r 0.561088 2 0 ack 40 ------- 0 3.0 0.0 23 66
- 0.561216 0 2 tcp 592 ------- 0 0.0 3.0 40 65
r 0.561376 3 2 ack 40 ------- 0 3.0 0.0 23 70
+ 0.561376 2 0 ack 40 ------- 0 3.0 0.0 23 70
- 0.561376 2 0 ack 40 ------- 0 3.0 0.0 23 70
r 0.561664 2 3 tcp 592 ------- 0 0.0 3.0 32 52
+ 0.561664 3 2 ack 40 ------- 0 3.0 0.0 23 73
- 0.561664 3 2 ack 40 ------- 0 3.0 0.0 23 73
r 0.562032 0 2 tcp 592 ------- 0 0.0 3.0 37 60
+ 0.562032 2 3 tcp 592 ------- 0 0.0 3.0 37 60
- 0.562032 2 3 tcp 592 ------- 0 0.0 3.0 37 60
r 0.562272 2 0 ack 40 ------- 0 3.0 0.0 23 68
- 0.5624 0 2 tcp 592 ------- 0 0.0 3.0 41 67
r 0.56256 3 2 ack 40 ------- 0 3.0 0.0 23 72
+ 0.56256 2 0 ack 40 ------- 0 3.0 0.0 23 72
- 0.56256 2 0 ack 40 ------- 0 3.0 0.0 23 72
r 0.562848 2 3 tcp 592 ------- 0 0.0 3.0 33 54
+ 0.562848 3 2 ack 40 ------- 0 3.0 0.0 23 74
- 0.562848 3 2 ack 40 ------- 0 3.0 0.0 23 74
r 0.563216 0 2 tcp 592 ------- 0 0.0 3.0 39 63
+ 0.563216 2 3 tcp 592 ------- 0 0.0 3.0 39 63
- 0.563216 2 3 tcp 592 ------- 0 0.0 3.0 39 63
r 0.563456 2 0 ack 40 ------- 0 3.0 0.0 23 70
+ 0.563456 0 2 tcp 592 ---A--- 0 0.0 3.0 24 75
- 0.563584 0 2 tcp 592 ------- 0 0.0 3.0 42 69
r 0.563744 3 2 ack 40 ------- 0 3.0 0.0 23 73
+ 0.563744 2 0 ack 40 ------- 0 3.0 0.0 23 73
- 0.563744 2 0 ack 40 ------- 0 3.0 0.0 23 73
r 0.564032 2 3 tcp 592 ------- 0 0.0 3.0 35 57
+ 0.564032 3 2 ack 40 ------- 0 3.0 0.0 23 76
- 0.564032 3 2 ack 40 ------- 0 3.0 0.0 23 76
r 0.5644 0 2 tcp 592 ------- 0 0.0 3.0 40 65
+ 0.5644 2 3 tcp 592 ------- 0 0.0 3.0 40 65
- 0.5644 2 3 tcp 592 ------- 0 0.0 3.0 40 65
r 0.56464 2 0 ack 40 ------- 0 3.0 0.0 23 72
- 0.564768 0 2 tcp 592 ------- 0 0.0 3.0 43 71
r 0.564928 3 2 ack 40 ------- 0 3.0 0.0 23 74
+ 0.564928 2 0 ack 40 ------- 0 3.0 0.0 23 74
- 0.564928 2 0 ack 40 ------- 0 3.0 0.0 23 74
r 0.565216 2 3 tcp 592 ------- 0 0.0 3.0 37 60
+ 0.565216 3 2 ack 40 ------- 0 3.0 0.0 23 77
- 0.565216 3 2 ack 40 ------- 0 3.0 0.0 23 77
r 0.565584 0 2 tcp 592 ------- 0 0.0 3.0 41 67
+ 0.565584 2 3 tcp 592 ------- 0 0.0 3.0 41 67
- 0.565584 2 3 tcp 592 ------- 0 0.0 3.0 41 67
r 0.565824 2 0 ack 40 ------- 0 3.0 0.0 23 73
- 0.565952 0 2 tcp 592 ---A--- 0 0.0 3.0 24 75
r 0.566112 3 2 ack 40 ------- 0 3.0 0.0 23 76
+ 0.566112 2 0 ack 40 ------- 0 3.0 0.0 23 76
- 0.566112 2 0 ack 40 ------- 0 3.0 0.0 23 76
r 0.5664 2 3 tcp 592 ------- 0 0.0 3.0 39 63
+ 0.5664 3 2 ack 40 ------- 0 3.0 0.0 23 78
- 0.5664 3 2 ack 40 ------- 0 3.0 0.0 23 78
r 0.566768 0 2 tcp 592 ------- 0 0.0 3.0 42 69
+ 0.566768 2 3 tcp 592 ------- 0 0.0 3.0 42 69
- 0.566768 2 3 tcp 592 ------- 0 0.0 3.0 42 69
r 0.567008 2 0 ack 40 ------- 0 3.0 0.0 23 74
r 0.567296 3 2 ack 40 ------- 0 3.0 0.0 23 77
+ 0.567296 2 0 ack 40 ------- 0 3.0 0.0 23 77
- 0.567296 2 0 ack 40 ------- 0 3.0 0.0 23 77
r 0.567584 2 3 tcp 592 ------- 0 0.0 3.0 40 65
+ 0.567584 3 2 ack 40 ------- 0 3.0 0.0 23 79
- 0.567584 3 2 ack 40 ------- 0 3.0 0.0 23 79
r 0.567952 0 2 tcp 592 ------- 0 0.0 3.0 43 71
+ 0.567952 2 3 tcp 592 ------- 0 0.0 3.0 43 71
- 0.567952 2 3 tcp 592 ------- 0 0.0 3.0 43 71
r 0.568192 2 0 ack 40 ------- 0 3.0 0.0 23 76
r 0.56848 3 2 ack 40 ------- 0 3.0 0.0 23 78
+ 0.56848 2 0 ack 40 ------- 0 3.0 0.0 23 78
- 0.56848 2 0 ack 40 ------- 0 3.0 0.0 23 78
r 0.568768 2 3 tcp 592 ------- 0 0.0 3.0 41 67
+ 0.568768 3 2 ack 40 ------- 0 3.0 0.0 23 80
- 0.568768 3 2 ack 40 ------- 0 3.0 0.0 23 80
r 0.569136 0 2 tcp 592 ---A--- 0 0.0 3.0 24 75
+ 0.569136 2 3 tcp 592 ---A--- 0 0.0 3.0 24 75
- 0.569136 2 3 tcp 592 ---A--- 0 0.0 3.0 24 75
r 0.569376 2 0 ack 40 ------- 0 3.0 0.0 23 77
r 0.569664 3 2 ack 40 ------- 0 3.0 0.0 23 79
+ 0.569664 2 0 ack 40 ------- 0 3.0 0.0 23 79
- 0.569664 2 0 ack 40 ------- 0 3.0 0.0 23 79
r 0.569952 2 3 tcp 592 ------- 0 0.0 3.0 42 69
+ 0.569952 3 2 ack 40 ------- 0 3.0 0.0 23 81
- 0.569952 3 2 ack 40 ------- 0 3.0 0.0 23 81
r 0.57056 2 0 ack 40 ------- 0 3.0 0.0 23 78
r 0.570848 3 2 ack 40 ------- 0 3.0 0.0 23 80
+ 0.570848 2 0 ack 40 ------- 0 3.0 0.0 23 80
- 0.570848 2 0 ack 40 ------- 0 3.0 0.0 23 80
r 0.571136 2 3 tcp 592 ------- 0 0.0 3.0 43 71
+ 0.571136 3 2 ack 40 ------- 0 3.0 0.0 23 82
- 0.571136 3 2 ack 40 ------- 0 3.0 0.0 23 82
r 0.571744 2 0 ack 40 ------- 0 3.0 0.0 23 79
r 0.572032 3 2 ack 40 ------- 0 3.0 0.0 23 81
+ 0.572032 2 0 ack 40 ------- 0 3.0 0.0 23 81
- 0.572032 2 0 ack 40 ------- 0 3.0 0.0 23 81
r 0.57232 2 3 tcp 592 ---A--- 0 0.0 3.0 24 75
+ 0.57232 3 2 ack 40 ------- 0 3.0 0.0 25 83
- 0.57232 3 2 ack 40 ------- 0 3.0 0.0 25 83
r 0.572928 2 0 ack 40 ------- 0 3.0 0.0 23 80
r 0.573216 3 2 ack 40 ------- 0 3.0 0.0 23 82
+ 0.573216 2 0 ack 40 ------- 0 3.0 0.0 23 82
- 0.573216 2 0 ack 40 ------- 0 3.0 0.0 23 82
r 0.574112 2 0 ack 40 ------- 0 3.0 0.0 23 81
r 0.5744 3 2 ack 40 ------- 0 3.0 0.0 25 83
+ 0.5744 2 0 ack 40 ------- 0 3.0 0.0 25 83
- 0.5744 2 0 ack 40 ------- 0 3.0 0.0 25 83
r 0.575296 2 0 ack 40 ------- 0 3.0 0.0 23 82
r 0.57648 2 0 ack 40 ------- 0 3.0 0.0 25 83
+ 0.57648 0 2 tcp 592 ------- 0 0.0 3.0 26 84
- 0.57648 0 2 tcp 592 ------- 0 0.0 3.0 26 84
+ 0.57648 0 2 tcp 592 ------- 0 0.0 3.0 27 85
- 0.577664 0 2 tcp 592 ------- 0 0.0 3.0 27 85
r 0.579664 0 2 tcp 592 ------- 0 0.0 3.0 26 84
+ 0.579664 2 3 tcp 592 ------- 0 0.0 3.0 26 84
- 0.579664 2 3 tcp 592 ------- 0 0.0 3.0 26 84
+ 0.58 1 2 cbr 1000 ------- 0 1.0 3.1 1 86
- 0.58 1 2 cbr 1000 ------- 0 1.0 3.1 1 86
r 0.580848 0 2 tcp 592 ------- 0 0.0 3.0 27 85
+ 0.580848 2 3 tcp 592 ------- 0 0.0 3.0 27 85
- 0.580848 2 3 tcp 592 ------- 0 0.0 3.0 27 85
r 0.582848 2 3 tcp 592 ------- 0 0.0 3.0 26 84
+ 0.582848 3 2 ack 40 ------- 0 3.0 0.0 27 87
- 0.582848 3 2 ack 40 ------- 0 3.0 0.0 27 87
r 0.584 1 2 cbr 1000 ------- 0 1.0 3.1 1 86
+ 0.584 2 3 cbr 1000 ------- 0 1.0 3.1 1 86
- 0.584 2 3 cbr 1000 ------- 0 1.0 3.1 1 86
r 0.584032 2 3 tcp 592 ------- 0 0.0 3.0 27 85
+ 0.584032 3 2 ack 40 ------- 0 3.0 0.0 27 88
- 0.584032 3 2 ack 40 ------- 0 3.0 0.0 27 88
r 0.584928 3 2 ack 40 ------- 0 3.0 0.0 27 87
+ 0.584928 2 0 ack 40 ------- 0 3.0 0.0 27 87
- 0.584928 2 0 ack 40 ------- 0 3.0 0.0 27 87
r 0.586112 3 2 ack 40 ------- 0 3.0 0.0 27 88
+ 0.586112 2 0 ack 40 ------- 0 3.0 0.0 27 88
- 0.586112 2 0 ack 40 ------- 0 3.0 0.0 27 88
r 0.587008 2 0 ack 40 ------- 0 3.0 0.0 27 87
+ 0.587008 0 2 tcp 592 ------- 0 0.0 3.0 28 89
- 0.587008 0 2 tcp 592 ------- 0 0.0 3.0 28 89
+ 0.587008 0 2 tcp 592 ------- 0 0.0 3.0 29 90
+ 0.587008 0 2 tcp 592 ------- 0 0.0 3.0 30 91
r 0.588 2 3 cbr 1000 ------- 0 1.0 3.1 1 86
r 0.588192 2 0 ack 40 ------- 0 3.0 0.0 27 88
+ 0.588192 0 2 tcp 592 ------- 0 0.0 3.0 31 92
- 0.588192 0 2 tcp 592 ------- 0 0.0 3.0 29 90
- 0.589376 0 2 tcp 592 ------- 0 0.0 3.0 30 91
r 0.590192 0 2 tcp 592 ------- 0 0.0 3.0 28 89
+ 0.590192 2 3 tcp 592 ------- 0 0.0 3.0 28 89
- 0.590192 2 3 tcp 592 ------- 0 0.0 3.0 28 89
- 0.59056 0 2 tcp 592 ------- 0 0.0 3.0 31 92
r 0.591376 0 2 tcp 592 ------- 0 0.0 3.0 29 90
+ 0.591376 2 3 tcp 592 ------- 0 0.0 3.0 29 90
- 0.591376 2 3 tcp 592 ------- 0 0.0 3.0 29 90
r 0.59256 0 2 tcp 592 ------- 0 0.0 3.0 30 91
+ 0.59256 2 3 tcp 592 ------- 0 0.0 3.0 30 91
- 0.59256 2 3 tcp 592 ------- 0 0.0 3.0 30 91
r 0.593376 2 3 tcp 592 ------- 0 0.0 3.0 28 89
+ 0.593376 3 2 ack 40 ------- 0 3.0 0.0 29 93
- 0.593376 3 2 ack 40 ------- 0 3.0 0.0 29 93
r 0.593744 0 2 tcp 592 ------- 0 0.0 3.0 31 92
+ 0.593744 2 3 tcp 592 ------- 0 0.0 3.0 31 92
- 0.593744 2 3 tcp 592 ------- 0 0.0 3.0 31 92
r 0.59456 2 3 tcp 592 ------- 0 0.0 3.0 29 90
+ 0.59456 3 2 ack 40 ------- 0 3.0 0.0 29 94
- 0.59456 3 2 ack 40 ------- 0 3.0 0.0 29 94
r 0.595456 3 2 ack 40 ------- 0 3.0 0.0 29 93
+ 0.595456 2 0 ack 40 ------- 0 3.0 0.0 29 93
- 0.595456 2 0 ack 40 ------- 0 3.0 0.0 29 93
r 0.595744 2 3 tcp 592 ------- 0 0.0 3.0 30 91
+ 0.595744 3 2 ack 40 ------- 0 3.0 0.0 33 95
- 0.595744 3 2 ack 40 ------- 0 3.0 0.0 33 95
r 0.59664 3 2 ack 40 ------- 0 3.0 0.0 29 94
+ 0.59664 2 0 ack 40 ------- 0 3.0 0.0 29 94
- 0.59664 2 0 ack 40 ------- 0 3.0 0.0 29 94
r 0.596928 2 3 tcp 592 ------- 0 0.0 3.0 31 92
+ 0.596928 3 2 ack 40 ------- 0 3.0 0.0 33 96
- 0.596928 3 2 ack 40 ------- 0 3.0 0.0 33 96
r 0.597536 2 0 ack 40 ------- 0 3.0 0.0 29 93
+ 0.597536 0 2 tcp 592 ------- 0 0.0 3.0 32 97
- 0.597536 0 2 tcp 592 ------- 0 0.0 3.0 32 97
+ 0.597536 0 2 tcp 592 ------- 0 0.0 3.0 33 98
r 0.597824 3 2 ack 40 ------- 0 3.0 0.0 33 95
+ 0.597824 2 0 ack 40 ------- 0 3.0 0.0 33 95
- 0.597824 2 0 ack 40 ------- 0 3.0 0.0 33 95
r 0.59872 2 0 ack 40 ------- 0 3.0 0.0 29 94
+ 0.59872 0 2 tcp 592 ------- 0 0.0 3.0 34 99
- 0.59872 0 2 tcp 592 ------- 0 0.0 3.0 33 98
r 0.599008 3 2 ack 40 ------- 0 3.0 0.0 33 96
+ 0.599008 2 0 ack 40 ------- 0 3.0 0.0 33 96
- 0.599008 2 0 ack 40 ------- 0 3.0 0.0 33 96
r 0.599904 2 0 ack 40 ------- 0 3.0 0.0 33 95
+ 0.599904 0 2 tcp 592 ------- 0 0.0 3.0 35 100
+ 0.599904 0 2 tcp 592 ------- 0 0.0 3.0 36 101
+ 0.599904 0 2 tcp 592 ------- 0 0.0 3.0 37 102
+ 0.599904 0 2 tcp 592 ------- 0 0.0 3.0 38 103
- 0.599904 0 2 tcp 592 ------- 0 0.0 3.0 34 99
r 0.60072 0 2 tcp 592 ------- 0 0.0 3.0 32 97
+ 0.60072 2 3 tcp 592 ------- 0 0.0 3.0 32 97
- 0.60072 2 3 tcp 592 ------- 0 0.0 3.0 32 97
r 0.601088 2 0 ack 40 ------- 0 3.0 0.0 33 96
+ 0.601088 0 2 tcp 592 ------- 0 0.0 3.0 39 104
- 0.601088 0 2 tcp 592 ------- 0 0.0 3.0 35 100
r 0.601904 0 2 tcp 592 ------- 0 0.0 3.0 33 98
+ 0.601904 2 3 tcp 592 ------- 0 0.0 3.0 33 98
- 0.601904 2 3 tcp 592 ------- 0 0.0 3.0 33 98
- 0.602272 0 2 tcp 592 ------- 0 0.0 3.0 36 101
r 0.603088 0 2 tcp 592 ------- 0 0.0 3.0 34 99
+ 0.603088 2 3 tcp 592 ------- 0 0.0 3.0 34 99
- 0.603088 2 3 tcp 592 ------- 0 0.0 3.0 34 99
- 0.603456 0 2 tcp 592 ------- 0 0.0 3.0 37 102
r 0.603904 2 3 tcp 592 ------- 0 0.0 3.0 32 97
+ 0.603904 3 2 ack 40 ------- 0 3.0 0.0 33 105
- 0.603904 3 2 ack 40 ------- 0 3.0 0.0 33 105
r 0.604272 0 2 tcp 592 ------- 0 0.0 3.0 35 100
+ 0.604272 2 3 tcp 592 ------- 0 0.0 3.0 35 100
- 0.604272 2 3 tcp 592 ------- 0 0.0 3.0 35 100
- 0.60464 0 2 tcp 592 ------- 0 0.0 3.0 38 103
r 0.605088 2 3 tcp 592 ------- 0 0.0 3.0 33 98
+ 0.605088 3 2 ack 40 ------- 0 3.0 0.0 33 106
- 0.605088 3 2 ack 40 ------- 0 3.0 0.0 33 106
r 0.605456 0 2 tcp 592 ------- 0 0.0 3.0 36 101
+ 0.605456 2 3 tcp 592 ------- 0 0.0 3.0 36 101
- 0.605456 2 3 tcp 592 ------- 0 0.0 3.0 36 101
- 0.605824 0 2 tcp 592 ------- 0 0.0 3.0 39 104
r 0.605984 3 2 ack 40 ------- 0 3.0 0.0 33 105
+ 0.605984 2 0 ack 40 ------- 0 3.0 0.0 33 105
- 0.605984 2 0 ack 40 ------- 0 3.0 0.0 33 105
r 0.606272 2 3 tcp 592 ------- 0 0.0 3.0 34 99
+ 0.606272 3 2 ack 40 ------- 0 3.0 0.0 35 107
- 0.606272 3 2 ack 40 ------- 0 3.0 0.0 35 107
r 0.60664 0 2 tcp 592 ------- 0 0.0 3.0 37 102
+ 0.60664 2 3 tcp 592 ------- 0 0.0 3.0 37 102
- 0.60664 2 3 tcp 592 ------- 0 0.0 3.0 37 102
r 0.607168 3 2 ack 40 ------- 0 3.0 0.0 33 106
+ 0.607168 2 0 ack 40 ------- 0 3.0 0.0 33 106
- 0.607168 2 0 ack 40 ------- 0 3.0 0.0 33 106
r 0.607456 2 3 tcp 592 ------- 0 0.0 3.0 35 100
+ 0.607456 3 2 ack 40 ------- 0 3.0 0.0 35 108
- 0.607456 3 2 ack 40 ------- 0 3.0 0.0 35 108
r 0.607824 0 2 tcp 592 ------- 0 0.0 3.0 38 103
+ 0.607824 2 3 tcp 592 ------- 0 0.0 3.0 38 103
- 0.607824 2 3 tcp 592 ------- 0 0.0 3.0 38 103
r 0.608064 2 0 ack 40 ------- 0 3.0 0.0 33 105
+ 0.608064 0 2 tcp 592 ------- 0 0.0 3.0 40 109
- 0.608064 0 2 tcp 592 ------- 0 0.0 3.0 40 109
r 0.608352 3 2 ack 40 ------- 0 3.0 0.0 35 107
+ 0.608352 2 0 ack 40 ------- 0 3.0 0.0 35 107
- 0.608352 2 0 ack 40 ------- 0 3.0 0.0 35 107
r 0.60864 2 3 tcp 592 ------- 0 0.0 3.0 36 101
+ 0.60864 3 2 ack 40 ------- 0 3.0 0.0 37 110
- 0.60864 3 2 ack 40 ------- 0 3.0 0.0 37 110
r 0.609008 0 2 tcp 592 ------- 0 0.0 3.0 39 104
+ 0.609008 2 3 tcp 592 ------- 0 0.0 3.0 39 104
- 0.609008 2 3 tcp 592 ------- 0 0.0 3.0 39 104
r 0.609248 2 0 ack 40 ------- 0 3.0 0.0 33 106
r 0.609536 3 2 ack 40 ------- 0 3.0 0.0 35 108
+ 0.609536 2 0 ack 40 ------- 0 3.0 0.0 35 108
- 0.609536 2 0 ack 40 ------- 0 3.0 0.0 35 108
r 0.609824 2 3 tcp 592 ------- 0 0.0 3.0 37 102
+ 0.609824 3 2 ack 40 ------- 0 3.0 0.0 37 111
- 0.609824 3 2 ack 40 ------- 0 3.0 0.0 37 111
r 0.610432 2 0 ack 40 ------- 0 3.0 0.0 35 107
+ 0.610432 0 2 tcp 592 ------- 0 0.0 3.0 41 112
- 0.610432 0 2 tcp 592 ------- 0 0.0 3.0 41 112
r 0.61072 3 2 ack 40 ------- 0 3.0 0.0 37 110
+ 0.61072 2 0 ack 40 ------- 0 3.0 0.0 37 110
- 0.61072 2 0 ack 40 ------- 0 3.0 0.0 37 110
r 0.611008 2 3 tcp 592 ------- 0 0.0 3.0 38 103
+ 0.611008 3 2 ack 40 ------- 0 3.0 0.0 43 113
- 0.611008 3 2 ack 40 ------- 0 3.0 0.0 43 113
r 0.611248 0 2 tcp 592 ------- 0 0.0 3.0 40 109
+ 0.611248 2 3 tcp 592 ------- 0 0.0 3.0 40 109
- 0.611248 2 3 tcp 592 ------- 0 0.0 3.0 40 109
r 0.611616 2 0 ack 40 ------- 0 3.0 0.0 35 108
+ 0.611616 0 2 tcp 592 ------- 0 0.0 3.0 42 114
- 0.611616 0 2 tcp 592 ------- 0 0.0 3.0 42 114
r 0.611904 3 2 ack 40 ------- 0 3.0 0.0 37 111
+ 0.611904 2 0 ack 40 ------- 0 3.0 0.0 37 111
- 0.611904 2 0 ack 40 ------- 0 3.0 0.0 37 111
r 0.612192 2 3 tcp 592 ------- 0 0.0 3.0 39 104
+ 0.612192 3 2 ack 40 ------- 0 3.0 0.0 43 115
- 0.612192 3 2 ack 40 ------- 0 3.0 0.0 43 115
r 0.6128 2 0 ack 40 ------- 0 3.0 0.0 37 110
+ 0.6128 0 2 tcp 592 ------- 0 0.0 3.0 43 116